/*--------------------------------*- C++ -*----------------------------------*\
| =========                 |                                                 |
| \\      /  F ield         | foam-extend: Open Source CFD                    |
|  \\    /   O peration     | Version:     4.1                                |
|   \\  /    A nd           | Web:         http://www.foam-extend.org         |
|    \\/     M anipulation  |                                                 |
\*---------------------------------------------------------------------------*/
FoamFile
{
    version     2.0;
    format      ascii;
    class       polyBoundaryMesh;
    location    "constant/polyMesh";
    object      boundary;
}
// * * * * * * * * * * * * * * * * * * * * * * * * * * * * * * * * * * * * * //

9
(
    oversetFaces
    {
        type            overset;
        nFaces          0;
        startFace       75524;
    }
    in
    {
        type            patch;
        nFaces          80;
        startFace       75524;
    }
    out
    {
        type            patch;
        nFaces          80;
        startFace       75604;
    }
    top
    {
        type            symmetryPlane;
        nFaces          100;
        startFace       75684;
    }
    bottom
    {
        type            symmetryPlane;
        nFaces          100;
        startFace       75784;
    }
    cylinder
    {
        type            wall;
        nFaces          228;
        startFace       75884;
    }
    outerCylinder
    {
        type            patch;
        nFaces          228;
        startFace       76112;
    }
    refine
    {
        type            patch;
        nFaces          456;
        startFace       76340;
    }
    frontAndBack
    {
        type            empty;
        nFaces          76160;
        startFace       76796;
    }
)


// ************************************************************************* //
