/*--------------------------------*- C++ -*----------------------------------*\
| =========                 |                                                 |
| \\      /  F ield         | foam-extend: Open Source CFD                    |
|  \\    /   O peration     | Version:     4.1                                |
|   \\  /    A nd           | Web:         http://www.foam-extend.org         |
|    \\/     M anipulation  |                                                 |
\*---------------------------------------------------------------------------*/
FoamFile
{
    version     2.0;
    format      ascii;
    class       volScalarField;
    location    "0";
    object      p;
}
// * * * * * * * * * * * * * * * * * * * * * * * * * * * * * * * * * * * * * //

dimensions      [0 2 -2 0 0 0 0];

internalField   nonuniform List<scalar> 
9200
(
-0.35100359
-0.24014708
-0.15626384
-0.092054572
-0.042451632
-0.0038007711
0.026561078
0.050594404
0.069756309
0.085139506
0.097570339
0.10767864
0.11594801
0.12275235
0.12838253
0.13306596
0.136981
0.14026733
0.14303321
0.14535818
-0.49645175
-0.36734055
-0.26808273
-0.19070689
-0.12976916
-0.081314038
-0.042434878
-0.010972727
0.014692354
0.035787586
0.053251138
0.067806362
0.080015526
0.090319067
0.099064536
0.10652812
0.11293086
0.11845111
0.1232346
0.12739875
-0.6363869
-0.48985253
-0.37573403
-0.28564969
-0.21377931
-0.15587192
-0.108784
-0.070164349
-0.038235488
-0.011640125
0.010668008
0.029502657
0.045502118
0.059171151
0.070912045
0.08104791
0.089840356
0.097503143
0.10421301
0.11011411
-0.76744501
-0.60465174
-0.47660373
-0.3746014
-0.29247806
-0.22570676
-0.17092199
-0.12559212
-0.087791792
-0.056041645
-0.029193956
-0.0063501475
0.01319941
0.030019729
0.044564217
0.057199495
0.068224205
0.077883408
0.086379657
0.093878274
-0.8864446
-0.70893295
-0.56824794
-0.45542522
-0.36398899
-0.28916444
-0.22738567
-0.17595783
-0.13282161
-0.096386915
-0.065413954
-0.038927144
-0.016152128
0.0035307527
0.020621208
0.035525151
0.048574543
0.060042532
0.070155038
0.079098328
-0.99048816
-0.80015407
-0.64844871
-0.52617935
-0.42660588
-0.34474035
-0.27684392
-0.22008033
-0.17227394
-0.13173836
-0.097153582
-0.067476886
-0.041877448
-0.019687903
-0.00036807652
0.016522327
0.031344575
0.044396827
0.055926394
0.066139944
-1.0770369
-0.87609105
-0.71526349
-0.58516089
-0.47883059
-0.39111218
-0.31812592
-0.25691991
-0.20522299
-0.16126951
-0.12367327
-0.091336021
-0.063380165
-0.039098756
-0.01791799
0.00063114173
0.016934498
0.031311462
0.044027834
0.055308025
-1.1439726
-0.9348899
-0.76706931
-0.63094401
-0.5194064
-0.42716867
-0.35024616
-0.28560014
-0.23088733
-0.18428189
-0.14434721
-0.10994261
-0.080154617
-0.054245826
-0.031616506
-0.01177542
0.0056824369
0.021093038
0.034736696
0.046851309
-1.1896493
-0.97511091
-0.80260037
-0.66241254
-0.54734611
-0.45203429
-0.37242599
-0.30542674
-0.24864641
-0.20021962
-0.15867641
-0.12284779
-0.091796284
-0.064763952
-0.041133498
-0.020398576
-0.0021411241
0.013986178
0.028273538
0.040967059
-1.2129369
-0.99576248
-0.82097755
-0.6787859
-0.56195508
-0.46508934
-0.38411139
-0.31590338
-0.25805465
-0.20868195
-0.16629977
-0.1297257
-0.09801061
-0.070386532
-0.046227448
-0.025019426
-0.0063377783
0.010170666
0.024801402
0.037804085
0.6584223
0.64446314
0.62195702
0.5948749
0.56576692
0.53625353
0.50734354
0.47964274
0.45349164
0.42905698
0.40639277
0.38548125
0.36626034
0.34864197
0.33252433
0.3177999
0.30436075
0.29210182
0.28092296
0.27073002
0.63533667
0.62425779
0.60411252
0.57905205
0.55168845
0.52368953
0.49610143
0.46955979
0.44442931
0.4208965
0.39903173
0.37883091
0.36024343
0.34319092
0.32757984
0.31330974
0.30027879
0.28838723
0.27753955
0.267646
0.589802
0.58437067
0.56898977
0.54800653
0.52415581
0.49920032
0.47426144
0.45003554
0.42693691
0.40519293
0.38490794
0.36610627
0.3487612
0.33281461
0.31819013
0.30480199
0.29256088
0.28137784
0.27116664
0.26184575
0.52296308
0.5257962
0.51746074
0.50251147
0.48385789
0.46340134
0.44237447
0.42156396
0.4014581
0.38234539
0.36438103
0.34763185
0.33210698
0.31777856
0.30459594
0.29249526
0.28140588
0.27125482
0.26196953
0.25348024
0.43646794
0.44997609
0.45078945
0.44367961
0.43177823
0.4171649
0.40121642
0.38483696
0.36861129
0.35290775
0.33794798
0.3238545
0.31068325
0.298446
0.2871257
0.27668714
0.2670841
0.2582644
0.2501732
0.2427555
0.33243471
0.35876454
0.37059804
0.37293508
0.36917159
0.36160024
0.35177085
0.34072904
0.32917599
0.31757645
0.30623239
0.29533364
0.28499285
0.27526974
0.26618807
0.25774734
0.24993103
0.24271216
0.2360572
0.2299279
0.21340153
0.25438495
0.27882844
0.29198012
0.29753529
0.29802877
0.29520752
0.29027865
0.28407646
0.27717606
0.26997148
0.26272972
0.2556285
0.2487827
0.24226304
0.23610925
0.23033933
0.22495584
0.21994996
0.21530056
0.082264591
0.13937796
0.17769813
0.20275679
0.21857601
0.22795532
0.23285741
0.2346664
0.23436267
0.2326426
0.23000146
0.2267912
0.22326118
0.21958711
0.2158917
0.21225954
0.20874783
0.20539396
0.20222
0.19922518
-0.057798222
0.016545626
0.069651626
0.10740417
0.13417254
0.15303584
0.16618477
0.17519081
0.18118922
0.18500517
0.18724151
0.18834051
0.18862776
0.1883436
0.1876659
0.18672687
0.18562598
0.18444089
0.18323933
0.18208274
-0.20343874
-0.1110846
-0.042690748
0.008210416
0.046333685
0.075041045
0.096755713
0.11324111
0.12579173
0.13536537
0.14267587
0.14825876
0.15251826
0.15576117
0.15822142
0.16007805
0.16146804
0.16249494
0.16323303
0.16372075
0.26042353
0.24960733
0.24012989
0.23180281
0.22446952
0.2179974
0.21227391
0.20720284
0.2027014
0.19869807
0.19513098
0.19194668
0.18909903
0.1865482
0.18425977
0.18220388
0.18035458
0.1786892
0.17718789
0.17583323
0.17460987
0.17350429
0.17250451
0.17159992
0.1707811
0.1700397
0.16936828
0.1687602
0.16820953
0.16771098
0.16725983
0.16685181
0.1664831
0.16615028
0.16585027
0.16558029
0.16533786
0.16512072
0.16492683
0.16475438
0.16460176
0.16446751
0.16435036
0.16424923
0.16416324
0.1640917
0.16403416
0.1639904
0.16396058
0.16394526
0.25785099
0.24763338
0.2386101
0.23062739
0.22355697
0.21728706
0.21172025
0.20677117
0.2023648
0.19843543
0.19492576
0.19178597
0.18897285
0.18644887
0.18418138
0.18214189
0.18030549
0.17865027
0.17715699
0.17580868
0.17459035
0.17348875
0.17249212
0.17159002
0.17077318
0.17003334
0.16936315
0.16875603
0.16820612
0.16770817
0.16725749
0.16684983
0.16648141
0.16614882
0.16584898
0.16557915
0.16533684
0.16511978
0.16492596
0.16475358
0.164601
0.1644668
0.16434969
0.16424859
0.16416263
0.16409111
0.16403359
0.16398985
0.16396004
0.16394474
0.25301957
0.24393379
0.23576639
0.2284339
0.22186069
0.21597384
0.21070374
0.20598485
0.20175676
0.19796504
0.19456142
0.1915033
0.18875312
0.18627781
0.18404805
0.18203792
0.18022439
0.17858703
0.17710772
0.17577032
0.17456051
0.17346556
0.1724741
0.17157601
0.17076226
0.17002481
0.16935645
0.16875073
0.16820188
0.16770473
0.16725464
0.16684743
0.16647934
0.16614698
0.16584732
0.16557761
0.16533539
0.1651184
0.16492463
0.16475229
0.16459975
0.16446557
0.16434849
0.16424742
0.16416148
0.16408999
0.16403249
0.16398877
0.16395898
0.16394368
0.24603255
0.23857092
0.23163037
0.22523773
0.21938898
0.21406354
0.20922894
0.20484694
0.20087855
0.19728655
0.19403646
0.19109657
0.18843769
0.18603305
0.18385817
0.1818907
0.18011038
0.17849888
0.17703968
0.17571792
0.17452025
0.17343468
0.17245045
0.17155792
0.17074842
0.1700142
0.16934827
0.16874438
0.16819689
0.16770073
0.16725135
0.16684464
0.16647691
0.16614479
0.16584529
0.16557569
0.16533353
0.16511658
0.16492285
0.16475052
0.16459799
0.16446383
0.16434676
0.16424572
0.1641598
0.16408833
0.16403086
0.16398716
0.16395739
0.16394211
0.23703144
0.2316282
0.22624436
0.22106164
0.2161564
0.21156619
0.20730152
0.20335892
0.19972831
0.19639613
0.19334641
0.19056152
0.18802291
0.18571176
0.18360962
0.18169877
0.1799625
0.17838523
0.17695258
0.17565136
0.17446956
0.17339619
0.17242131
0.17153591
0.17073182
0.17000166
0.16933877
0.16873711
0.16819124
0.16769626
0.1672477
0.16684155
0.16647419
0.16614231
0.16584296
0.16557343
0.1653313
0.16511436
0.16492062
0.16474829
0.16459576
0.16446159
0.16434453
0.1642435
0.1641576
0.16408615
0.1640287
0.16398502
0.16395528
0.16394002
0.2261939
0.2232092
0.21966522
0.21594087
0.21218556
0.20849295
0.20492255
0.201515
0.1982973
0.19528486
0.19248362
0.18989231
0.18750463
0.18531116
0.18330068
0.18146113
0.17978024
0.1782459
0.17684645
0.17557084
0.1744087
0.1733504
0.172387
0.17151028
0.17071273
0.16998745
0.16932815
0.16872912
0.16818513
0.16769147
0.16724381
0.16683826
0.16647127
0.16613961
0.16584036
0.16557087
0.16532874
0.16511177
0.16491799
0.16474562
0.16459305
0.16445887
0.1643418
0.16424077
0.16415488
0.16408345
0.16402602
0.16398237
0.16395265
0.16393741
0.21373414
0.21343867
0.21197018
0.2099228
0.20749673
0.20484189
0.20207753
0.19929729
0.19656964
0.19394097
0.19144033
0.18908421
0.18688025
0.18483001
0.18293097
0.18117794
0.17956405
0.17808149
0.17672196
0.17547701
0.17433834
0.17329791
0.17234805
0.17148154
0.17069159
0.16997194
0.16931676
0.16872068
0.16817878
0.16768655
0.16723985
0.1668349
0.16646825
0.16613677
0.16583758
0.16556807
0.16532588
0.16510883
0.16491497
0.16474253
0.1645899
0.16445567
0.16433858
0.16423754
0.16415166
0.16408025
0.16402284
0.16397921
0.16394951
0.16393429
0.19991076
0.20246826
0.20325137
0.20304047
0.20207734
0.20057974
0.19873266
0.19668043
0.19452947
0.19235583
0.19021266
0.18813621
0.1861503
0.18426961
0.18250211
0.18085089
0.17931563
0.17789362
0.17658057
0.17537119
0.17425963
0.17323974
0.17230536
0.17145041
0.17066904
0.16995567
0.16930502
0.16871216
0.16817249
0.16768175
0.167236
0.16683161
0.16646526
0.16613389
0.16583469
0.1655651
0.16532278
0.1651056
0.16491161
0.16473905
0.16458633
0.16445203
0.16433489
0.16423384
0.16414795
0.16407655
0.16401915
0.16397555
0.16394587
0.16393066
0.18491836
0.19030892
0.19340887
0.19511669
0.19573614
0.19554081
0.1947574
0.19356423
0.19209937
0.19046874
0.18875243
0.18700987
0.18528416
0.18360564
0.1819948
0.18046471
0.17902286
0.17767269
0.17641472
0.17524741
0.17416783
0.17317214
0.17225594
0.17141456
0.17064322
0.16993717
0.16929179
0.16870266
0.16816555
0.16767652
0.16723185
0.1668281
0.16646207
0.1661308
0.16583156
0.16556186
0.16531938
0.16510203
0.16490788
0.16473517
0.16458234
0.16444795
0.16433075
0.16422966
0.16414377
0.16407237
0.16401499
0.1639714
0.16394174
0.16392654
0.16809009
0.1763602
0.18200913
0.18591425
0.18841159
0.18978081
0.1902732
0.19010333
0.18944881
0.18845329
0.18723054
0.18586874
0.18443483
0.18297855
0.18153598
0.18013253
0.17878539
0.17750554
0.17629937
0.17516984
0.17411748
0.17314111
0.17223835
0.17140605
0.17064062
0.16993818
0.16929478
0.16870649
0.16816945
0.16767999
0.16723459
0.16682995
0.16646297
0.16613077
0.16583066
0.16556016
0.16531699
0.16509905
0.16490442
0.16473133
0.16457821
0.16444361
0.16432627
0.16422509
0.16413915
0.16406774
0.16401036
0.16396678
0.16393713
0.16392193
0.15551436
0.16497067
0.17193561
0.17709327
0.18076702
0.18322249
0.18469906
0.185406
0.18552089
0.18519131
0.1845378
0.18365732
0.18262656
0.18150525
0.18033913
0.17916253
0.1780007
0.17687165
0.1757878
0.17475725
0.17378482
0.17287287
0.17202195
0.17123133
0.17049936
0.16982377
0.16920189
0.16863084
0.16810762
0.16762922
0.16719269
0.16679515
0.16643389
0.16610628
0.16580987
0.16554237
0.16530164
0.16508569
0.16489268
0.16472094
0.16456893
0.16443525
0.16431869
0.16421815
0.16413275
0.16406177
0.16400473
0.1639614
0.1639319
0.16391677
0.14887587
0.15770431
0.16481534
0.17037489
0.17458432
0.17764289
0.17974113
0.18105459
0.18173968
0.18193206
0.18174695
0.18128031
0.18061076
0.17980169
0.17890335
0.17795499
0.17698671
0.17602116
0.175075
0.17416013
0.17328471
0.17245401
0.17167109
0.17093734
0.17025292
0.16961709
0.16902845
0.16848521
0.16798526
0.16752635
0.16710614
0.16672229
0.16637251
0.16605454
0.16576624
0.16550555
0.16527054
0.16505941
0.16487046
0.16470213
0.16455297
0.1644217
0.16430713
0.16420825
0.1641242
0.16405432
0.16399814
0.16395545
0.16392638
0.16391146
0.1434753
0.15176707
0.15872737
0.16441287
0.16892999
0.17240823
0.17498556
0.17679884
0.17797739
0.17863905
0.17888824
0.17881537
0.17849716
0.1779976
0.17736916
0.17665422
0.17588646
0.17509225
0.17429186
0.17350059
0.17272966
0.17198711
0.17127845
0.17060717
0.16997527
0.16938354
0.16883196
0.16831983
0.16784601
0.16740904
0.16700727
0.16663893
0.16630219
0.16599519
0.16571611
0.1654632
0.16523475
0.16502914
0.16484484
0.16468042
0.16453455
0.16440604
0.16429377
0.1641968
0.16411432
0.1640457
0.16399051
0.16394856
0.16391998
0.16390531
0.13950607
0.14710654
0.15370173
0.15928792
0.16390518
0.16762366
0.1705319
0.17272738
0.17430942
0.17537409
0.17601082
0.17630043
0.17631417
0.17611362
0.17575099
0.17526984
0.17470594
0.17408822
0.17343975
0.17277862
0.17211876
0.17147071
0.17084224
0.17023889
0.16966442
0.16912122
0.16861059
0.16813301
0.16768831
0.1672759
0.16689483
0.16654395
0.16622192
0.16592734
0.16565874
0.16541467
0.16519368
0.16499437
0.16481538
0.16465544
0.16451335
0.16438799
0.16427837
0.16418359
0.16410292
0.16403575
0.1639817
0.16394059
0.16391259
0.16389821
0.13684395
0.14364527
0.14972312
0.15503521
0.15957635
0.16337114
0.16646619
0.16892276
0.17081036
0.17220162
0.17316835
0.17377879
0.17409577
0.17417567
0.17406805
0.17381561
0.17345458
0.17301518
0.17252228
0.17199602
0.17145249
0.17090437
0.17036143
0.16983109
0.1693188
0.16882845
0.16836269
0.16792313
0.16751066
0.16712552
0.16676754
0.16643619
0.16613069
0.16585008
0.16559331
0.16535925
0.16514672
0.16495456
0.16478162
0.16462679
0.164489
0.16436726
0.16426066
0.1641684
0.16408979
0.16402429
0.16397154
0.16393142
0.16390406
0.16389002
0.13530322
0.14126569
0.14673451
0.15164824
0.15597412
0.1597051
0.16285545
0.16545597
0.16754915
0.16918477
0.17041615
0.17129725
0.1718803
0.17221431
0.17234402
0.1723094
0.17214546
0.17188235
0.17154563
0.17115664
0.17073298
0.17028895
0.169836
0.16938314
0.16893736
0.16850397
0.16808685
0.16768879
0.16731165
0.16695658
0.16662416
0.16631452
0.16602745
0.16576248
0.16551899
0.16529618
0.1650932
0.16490914
0.16474305
0.16459402
0.16446112
0.1643435
0.16424035
0.16415096
0.16407471
0.16401112
0.16395987
0.16392086
0.16389426
0.16388059
0.13469251
0.13982743
0.14464719
0.14908528
0.15309541
0.15665111
0.15974418
0.16238204
0.16458467
0.16638142
0.16780795
0.16890352
0.16970868
0.17026356
0.17060644
0.1707729
0.17079522
0.17070213
0.17051874
0.17026667
0.16996426
0.16962685
0.16926711
0.16889533
0.16851979
0.16814702
0.16778209
0.16742884
0.16709009
0.16676787
0.16646351
0.16617781
0.16591116
0.16566359
0.16543491
0.16522471
0.16503245
0.16485749
0.16469914
0.16455665
0.1644293
0.16431635
0.16421713
0.164131
0.16405744
0.16399603
0.16394649
0.16390875
0.16388301
0.16386978
0.13482856
0.13918142
0.14335209
0.14727762
0.15090797
0.1542071
0.15715307
0.15973712
0.16196209
0.16384053
0.1653925
0.16664344
0.1676222
0.1683593
0.16888556
0.16923093
0.16942371
0.16949
0.16945338
0.16933478
0.16915249
0.16892224
0.16865739
0.16836911
0.16806667
0.16775759
0.16744795
0.16714253
0.16684507
0.16655839
0.16628456
0.16602507
0.16578085
0.16555249
0.16534023
0.16514405
0.16496375
0.16479899
0.16464931
0.1645142
0.1643931
0.16428543
0.16419065
0.16410822
0.16403772
0.16397877
0.16393118
0.1638949
0.16387013
0.1638574
0.13554136
0.13917916
0.14272972
0.14613806
0.1493566
0.15234677
0.15507992
0.15753749
0.15971061
0.16159916
0.16321054
0.16455817
0.16566005
0.16653732
0.1672129
0.16771044
0.16805336
0.16826416
0.16836396
0.1683721
0.16830603
0.1681812
0.16801108
0.16780729
0.16757968
0.16733652
0.16708465
0.16682966
0.16657606
0.16632742
0.1660865
0.1658554
0.16563565
0.16542833
0.16523413
0.16505344
0.16488641
0.16473299
0.164593
0.16446615
0.16435206
0.16425033
0.16416055
0.1640823
0.16401525
0.16395911
0.16391372
0.16387908
0.16385542
0.16384325
0.13667807
0.13967963
0.1426584
0.14556908
0.14836995
0.15102442
0.15350225
0.15578026
0.15784261
0.15968064
0.16129234
0.16268153
0.16385695
0.16483116
0.1656195
0.16623914
0.16670817
0.16704487
0.16726714
0.16739202
0.16743539
0.16741175
0.16733416
0.16721414
0.16706175
0.16688566
0.16669324
0.16649067
0.16628308
0.16607467
0.16586881
0.16566817
0.16547483
0.16529035
0.16511586
0.16495216
0.16479974
0.16465887
0.16452963
0.16441196
0.16430571
0.16421063
0.16412645
0.16405291
0.16398974
0.16393676
0.16389386
0.16386108
0.16383867
0.16382714
0.13810578
0.14055424
0.14302086
0.14547003
0.14786728
0.15018054
0.1523813
0.15444554
0.15635429
0.15809396
0.15965632
0.16103818
0.16224098
0.16327008
0.16413407
0.16484396
0.16541251
0.16585352
0.16618122
0.1664098
0.166553
0.16662382
0.16663432
0.16659549
0.16651716
0.16640804
0.16627574
0.16612679
0.16596676
0.16580032
0.16563136
0.16546303
0.1652979
0.16513797
0.16498481
0.16483958
0.16470313
0.16457603
0.16445863
0.16435113
0.16425357
0.16416588
0.16408797
0.16401968
0.16396088
0.16391144
0.16387134
0.16384066
0.16381966
0.16380885
0.13971305
0.14169021
0.14370911
0.14574294
0.14776453
0.14974739
0.15166662
0.15349978
0.15522761
0.15683444
0.15830859
0.15964238
0.16083201
0.16187729
0.1627812
0.1635494
0.16418971
0.16471151
0.16512524
0.16544194
0.16567282
0.16582893
0.1659209
0.1659587
0.16595158
0.16590792
0.16583523
0.16574015
0.16562847
0.16550518
0.16537451
0.16524002
0.16510467
0.16497086
0.16484053
0.1647152
0.16459604
0.16448394
0.1643795
0.16428317
0.16419518
0.16411569
0.16404472
0.16398229
0.16392834
0.16388286
0.16384589
0.16381756
0.16379815
0.16378815
0.1414097
0.14299215
0.14462772
0.14629699
0.14797943
0.14965419
0.15130075
0.15289964
0.15443305
0.15588538
0.15724366
0.15849783
0.15964084
0.16066863
0.16157993
0.1623761
0.16306066
0.16363901
0.16411796
0.16450535
0.1648097
0.16503981
0.16520454
0.16531252
0.16537202
0.16539077
0.1653759
0.16533387
0.16527046
0.16519076
0.16509922
0.16499966
0.16489533
0.16478896
0.1646828
0.16457869
0.16447809
0.16438217
0.1642918
0.16420763
0.16413013
0.16405963
0.16399633
0.16394036
0.16389181
0.16385073
0.16381725
0.16379154
0.16377389
0.16376479
0.14312532
0.14438221
0.14569546
0.14705147
0.14843539
0.14983149
0.15122367
0.15259594
0.15393296
0.15522049
0.15644587
0.15759831
0.15866916
0.15965201
0.16054277
0.16133955
0.16204255
0.16265376
0.16317679
0.16361648
0.16397866
0.16426982
0.16449684
0.16466679
0.16478667
0.16486327
0.16490307
0.16491207
0.16489583
0.16485935
0.1648071
0.16474302
0.16467055
0.16459261
0.16451172
0.16442997
0.16434907
0.16427044
0.16419518
0.16412416
0.16405806
0.16399737
0.16394246
0.1638936
0.16385098
0.16381477
0.16378515
0.16376234
0.16374666
0.16373856
0.14480752
0.14579928
0.14684556
0.14793726
0.14906401
0.15021443
0.15137638
0.15253737
0.15368488
0.15480675
0.1558916
0.15692906
0.15791015
0.15882744
0.15967518
0.16044941
0.16114787
0.16177
0.16231671
0.16279026
0.16319402
0.16353222
0.16380978
0.16403204
0.16420457
0.16433304
0.16442301
0.16447985
0.16450863
0.16451407
0.1645005
0.16447182
0.1644315
0.16438259
0.16432775
0.16426926
0.16420902
0.16414866
0.16408947
0.16403253
0.16397869
0.16392862
0.16388283
0.16384171
0.16380559
0.16377472
0.16374934
0.16372973
0.16371622
0.16370923
0.1464188
0.14719707
0.14802519
0.14889733
0.14980656
0.15074495
0.15170374
0.15267356
0.15364469
0.15460727
0.15555166
0.15646868
0.15734985
0.15818768
0.1589758
0.15970912
0.16038386
0.16099765
0.1615494
0.16203929
0.16246857
0.16283949
0.16315507
0.16341897
0.16363529
0.1638084
0.16394284
0.16404314
0.16411372
0.16415884
0.16418251
0.16418842
0.16417997
0.16416019
0.16413179
0.16409714
0.16405829
0.16401698
0.16397471
0.16393267
0.1638919
0.1638532
0.16381722
0.16378449
0.16375541
0.16373036
0.16370962
0.16369351
0.16368237
0.16367659
0.14793414
0.14854215
0.149194
0.14988619
0.15061429
0.15137302
0.15215633
0.15295748
0.1537692
0.15458389
0.15539379
0.15619122
0.15696875
0.15771947
0.1584371
0.15911622
0.15975231
0.16034191
0.1608826
0.16137301
0.16181278
0.16220247
0.16254347
0.16283787
0.16308834
0.16329797
0.16347018
0.16360853
0.1637167
0.16379832
0.16385693
0.16389589
0.16391836
0.16392724
0.1639252
0.16391461
0.16389756
0.16387588
0.16385115
0.16382472
0.16379771
0.16377106
0.16374555
0.1637218
0.16370031
0.16368153
0.16366582
0.16365351
0.16364495
0.16364049
0.1493384
0.14981165
0.15032242
0.1508688
0.15144811
0.15205701
0.1526915
0.15334692
0.15401809
0.15469936
0.1553848
0.15606828
0.15674365
0.15740494
0.15804645
0.15866297
0.15924987
0.15980319
0.16031979
0.1607973
0.16123421
0.1616298
0.16198415
0.162298
0.16257273
0.16281022
0.16301277
0.16318299
0.16332368
0.16343777
0.16352821
0.16359791
0.16364968
0.16368618
0.16370991
0.16372315
0.16372795
0.16372616
0.16371939
0.16370906
0.16369638
0.16368237
0.16366789
0.16365365
0.16364025
0.16362819
0.16361786
0.16360964
0.16360386
0.16360083
0.15062363
0.15099101
0.15138986
0.15181925
0.15227774
0.15276337
0.1532736
0.1538054
0.1543552
0.15491902
0.15549247
0.15607089
0.15664946
0.15722326
0.15778745
0.15833739
0.1588687
0.15937747
0.15986026
0.16031423
0.16073713
0.16112741
0.16148413
0.16180702
0.16209635
0.16235296
0.16257811
0.16277347
0.16294099
0.16308283
0.16320128
0.16329871
0.16337751
0.16343997
0.16348834
0.16352471
0.16355102
0.16356904
0.16358036
0.16358641
0.16358842
0.16358748
0.16358449
0.16358023
0.16357535
0.16357038
0.16356578
0.16356192
0.1635591
0.1635576
0.15178754
0.15207217
0.15238279
0.15271912
0.1530805
0.15346588
0.15387378
0.15430234
0.15474922
0.15521174
0.1556868
0.15617102
0.15666075
0.15715216
0.15764133
0.15812435
0.15859742
0.15905691
0.15949948
0.15992218
0.16032244
0.16069822
0.16104794
0.16137057
0.16166558
0.16193292
0.16217299
0.1623866
0.16257489
0.16273926
0.16288136
0.16300294
0.16310589
0.16319209
0.16326344
0.16332176
0.16336879
0.16340617
0.16343539
0.16345782
0.16347468
0.16348705
0.16349586
0.16350191
0.16350589
0.16350834
0.16350975
0.16351047
0.16351078
0.16351089
0.15283124
0.15305161
0.15329318
0.15355603
0.15384003
0.15414472
0.15446936
0.15481288
0.15517386
0.15555057
0.15594095
0.15634264
0.15675302
0.15716921
0.15758821
0.15800689
0.15842208
0.15883067
0.15922966
0.15961622
0.15998781
0.16034215
0.16067738
0.16099198
0.16128485
0.16155531
0.16180307
0.16202822
0.16223119
0.16241269
0.16257371
0.16271544
0.16283919
0.16294642
0.16303859
0.16311721
0.16318376
0.16323965
0.16328622
0.16332474
0.16335634
0.16338206
0.1634028
0.16341935
0.1634324
0.16344251
0.16345013
0.16345561
0.16345919
0.16346098
0.15375856
0.15392914
0.15411689
0.15432213
0.15454497
0.15478534
0.15504295
0.15531728
0.15560756
0.15591276
0.15623157
0.15656244
0.15690357
0.15725291
0.15760825
0.15796719
0.15832725
0.15868589
0.15904054
0.15938872
0.15972805
0.16005634
0.16037161
0.16067213
0.16095649
0.16122358
0.16147261
0.16170312
0.16191495
0.16210824
0.1622834
0.16244102
0.16258194
0.16270709
0.16281754
0.16291441
0.16299885
0.16307203
0.16313507
0.16318906
0.16323501
0.16327385
0.16330644
0.16333351
0.16335571
0.16337357
0.16338752
0.16339788
0.1634048
0.16340832
0.15457427
0.15470653
0.15485264
0.15501298
0.15518784
0.15537736
0.15558155
0.15580024
0.15603308
0.15627954
0.15653886
0.15681009
0.15709204
0.15738335
0.15768245
0.15798762
0.15829697
0.15860852
0.15892021
0.15922997
0.15953573
0.15983548
0.16012736
0.1604096
0.16068068
0.16093924
0.16118421
0.16141473
0.16163021
0.16183033
0.16201498
0.16218429
0.1623386
0.16247838
0.16260428
0.16271701
0.1628174
0.16290629
0.16298456
0.16305308
0.16311269
0.16316418
0.1632083
0.16324569
0.16327694
0.16330252
0.16332282
0.16333807
0.16334836
0.16335362
0.15528372
0.15538664
0.15550069
0.1556263
0.15576381
0.15591351
0.15607556
0.15625001
0.15643679
0.15663569
0.15684633
0.1570682
0.15730058
0.15754261
0.15779326
0.15805131
0.15831544
0.15858415
0.15885588
0.15912897
0.1594017
0.15967238
0.15993932
0.16020089
0.16045557
0.16070196
0.1609388
0.16116504
0.1613798
0.16158239
0.16177235
0.16194939
0.16211341
0.16226451
0.16240289
0.16252891
0.16264303
0.16274578
0.16283776
0.16291957
0.16299187
0.16305525
0.16311032
0.16315762
0.16319763
0.16323074
0.16325724
0.1632773
0.16329092
0.1632979
0.15589201
0.15597257
0.15606213
0.15616109
0.15626982
0.15638865
0.15651783
0.15665755
0.15680789
0.15696886
0.15714035
0.15732212
0.1575138
0.1577149
0.15792478
0.15814266
0.15836763
0.15859864
0.15883453
0.15907405
0.15931584
0.15955853
0.15980067
0.16004083
0.16027762
0.16050968
0.16073573
0.16095462
0.1611653
0.16136687
0.16155859
0.16173986
0.16191026
0.1620695
0.16221746
0.16235414
0.16247965
0.16259421
0.16269812
0.16279174
0.16287547
0.16294972
0.16301493
0.16307148
0.16311973
0.16315997
0.1631924
0.16321707
0.16323389
0.16324253
0.15640321
0.15646696
0.15653802
0.15661679
0.15670362
0.15679885
0.15690278
0.15701565
0.15713767
0.15726895
0.15740955
0.15755943
0.15771845
0.15788639
0.15806288
0.15824748
0.15843959
0.15863852
0.15884345
0.15905348
0.15926758
0.15948466
0.15970356
0.15992308
0.16014197
0.16035902
0.16057299
0.16078274
0.16098714
0.16118518
0.16137595
0.16155863
0.16173255
0.16189715
0.16205199
0.16219678
0.16233133
0.16245556
0.16256948
0.16267321
0.1627669
0.16285076
0.16292502
0.16298993
0.16304569
0.16309248
0.16313036
0.16315931
0.16317911
0.16318929
0.15681986
0.15687121
0.1569286
0.15699238
0.1570629
0.15714049
0.15722546
0.15731809
0.15741862
0.15752726
0.15764416
0.1577694
0.157903
0.15804491
0.15819498
0.15835297
0.15851854
0.15869126
0.15887059
0.15905589
0.15924642
0.15944135
0.15963975
0.15984064
0.16004299
0.16024569
0.16044764
0.16064772
0.16084485
0.16103794
0.16122601
0.16140809
0.16158335
0.161751
0.1619104
0.162061
0.16220234
0.16233411
0.16245606
0.16256805
0.16267003
0.162762
0.16284401
0.16291614
0.16297844
0.16303097
0.16307367
0.16310641
0.16312884
0.16314041
0.15714231
0.15718483
0.15723246
0.15728554
0.15734439
0.15740931
0.15748062
0.15755861
0.15764354
0.15773567
0.15783519
0.15794227
0.15805703
0.15817951
0.15830972
0.15844756
0.15859287
0.15874539
0.1589048
0.15907065
0.15924242
0.15941947
0.15960111
0.15978652
0.15997483
0.1601651
0.16035632
0.16054748
0.16073751
0.16092536
0.16110997
0.16129034
0.1614655
0.16163454
0.16179665
0.16195109
0.16209721
0.16223448
0.16236246
0.16248081
0.16258926
0.16268766
0.16277587
0.16285383
0.16292147
0.1629787
0.16302538
0.16306124
0.16308588
0.16309858
0.1573675
0.15740426
0.15744551
0.15749158
0.15754276
0.15759935
0.15766165
0.15772995
0.15780454
0.15788567
0.15797358
0.15806848
0.15817053
0.15827987
0.15839655
0.15852059
0.15865194
0.15879046
0.15893595
0.1590881
0.15924654
0.15941078
0.15958026
0.15975432
0.1599322
0.16011308
0.16029607
0.1604802
0.16066447
0.16084784
0.16102927
0.16120771
0.16138214
0.16155156
0.16171505
0.16187176
0.1620209
0.16216179
0.16229384
0.16241655
0.16252954
0.16263247
0.16272512
0.16280728
0.16287878
0.16293944
0.16298903
0.1630272
0.16305345
0.163067
0.15748752
0.15752137
0.1575594
0.15760189
0.15764916
0.15770148
0.15775917
0.1578225
0.15789175
0.15796721
0.15804912
0.15813769
0.15823314
0.1583356
0.1584452
0.15856199
0.15868597
0.15881706
0.15895513
0.15909996
0.15925122
0.15940852
0.15957137
0.15973919
0.1599113
0.16008694
0.16026526
0.16044537
0.16062628
0.16080698
0.16098643
0.16116357
0.16133735
0.16150676
0.1616708
0.16182855
0.16197918
0.1621219
0.16225606
0.16238107
0.16249646
0.16260184
0.16269688
0.16278132
0.16285494
0.16291748
0.16296867
0.16300811
0.16303525
0.16304927
0.051352711
0.053967075
0.058830534
0.065844433
0.074879426
0.085777061
0.0983474
0.11235194
0.12750496
0.14256814
0.064071356
0.066101076
0.069865495
0.075300802
0.082322954
0.090831442
0.10071189
0.11183282
0.12408555
0.13708028
0.075365101
0.076929239
0.079824859
0.084019664
0.089472513
0.096133162
0.10393764
0.11280091
0.1226273
0.13324338
0.085387479
0.086588555
0.088806038
0.092024226
0.096223674
0.10137923
0.1074572
0.11441872
0.12222314
0.13079365
0.094274612
0.095193941
0.096885104
0.09934078
0.10255193
0.1065069
0.11119351
0.11660657
0.12273949
0.12955856
0.10214854
0.10284971
0.10413338
0.10599604
0.10843374
0.11144334
0.11502685
0.11919581
0.12395727
0.12930333
0.10911891
0.10965154
0.11062086
0.11202521
0.11386369
0.11613843
0.11885809
0.12203814
0.12568847
0.1298182
0.11528465
0.11568757
0.11641583
0.11746891
0.11884784
0.12055713
0.12260635
0.12500856
0.12777269
0.13091747
0.12073505
0.12103874
0.12158352
0.12236967
0.1233991
0.12467646
0.12620931
0.12800666
0.1300755
0.13243809
0.12555047
0.12577873
0.12618488
0.12676961
0.12753487
0.12848423
0.12962254
0.13095519
0.13248723
0.13424007
0.12980273
0.129974
0.13027604
0.13070958
0.13127612
0.13197785
0.13281733
0.13379733
0.13492108
0.13620688
0.13355576
0.13368412
0.13390828
0.13422879
0.13464654
0.13516255
0.1357778
0.13649334
0.13731088
0.13824475
0.13686619
0.13696231
0.1371284
0.13736474
0.13767168
0.13804943
0.13849799
0.13901741
0.13960824
0.14028101
0.13978418
0.13985614
0.13997906
0.14015299
0.1403779
0.14065355
0.1409794
0.14135491
0.14177991
0.14226164
0.14235423
0.14240808
0.14249901
0.14262692
0.14279155
0.14299239
0.14322872
0.14349973
0.14380478
0.14414863
0.14461574
0.14465608
0.14472343
0.14481761
0.14493823
0.14508474
0.14525636
0.1454522
0.14567142
0.14591697
0.14660363
0.14663392
0.14668398
0.14675359
0.14684237
0.14694976
0.14707502
0.14721731
0.14737573
0.14755201
0.14834883
0.14837164
0.14840907
0.14846093
0.14852683
0.14860628
0.14869863
0.14880311
0.14891891
0.14904697
0.14987849
0.14989578
0.14992407
0.14996317
0.15001278
0.15007245
0.15014164
0.1502197
0.1503059
0.1504007
0.15121659
0.15122976
0.15125142
0.15128142
0.1513195
0.15136529
0.15141833
0.1514781
0.15154397
0.15161615
0.15238381
0.15239397
0.1524109
0.15243446
0.15246445
0.15250057
0.15254246
0.15258967
0.15264172
0.15269861
0.15339831
0.1534062
0.15341971
0.15343873
0.15346308
0.15349252
0.15352676
0.15356546
0.15360822
0.15365497
0.15427536
0.15428159
0.15429267
0.15430849
0.15432893
0.15435379
0.15438285
0.15441582
0.15445238
0.15449244
0.15502793
0.1550329
0.15504221
0.1550558
0.15507354
0.15509529
0.15512086
0.15515001
0.1551825
0.15521821
0.15566643
0.15567044
0.15567848
0.1556905
0.15570639
0.15572603
0.15574926
0.1557759
0.15580574
0.15583866
0.15619872
0.15620203