/*--------------------------------*- C++ -*----------------------------------*\
| =========                 |                                                 |
| \\      /  F ield         | foam-extend: Open Source CFD                    |
|  \\    /   O peration     | Version:     4.1                                |
|   \\  /    A nd           | Web:         http://www.foam-extend.org         |
|    \\/     M anipulation  |                                                 |
\*---------------------------------------------------------------------------*/
FoamFile
{
    version     2.0;
    format      ascii;
    class       surfaceScalarField;
    location    "0";
    object      phi;
}
// * * * * * * * * * * * * * * * * * * * * * * * * * * * * * * * * * * * * * //

dimensions      [0 3 -1 0 0 0 0];

internalField   nonuniform List<scalar> 
18180
(
0.0073406489
-0.10216587
0.094825224
0.014479398
-0.099623858
0.092485107
0.021479337
-0.097730828
0.090730882
0.028379831
-0.096383049
0.08948255
0.03521579
-0.095512029
0.088676068
0.042018149
-0.095062147
0.088259785
0.048814504
-0.094988167
0.088191807
0.055629699
-0.095253197
0.088438001
0.0624863
-0.095827086
0.08897049
0.069405018
-0.096685158
0.089766443
0.076405044
-0.097807215
0.090807186
0.083504342
-0.099176752
0.092077454
0.090719873
-0.10078035
0.093564824
0.098067798
-0.10260717
0.095259246
0.10556368
-0.10464857
0.097152692
0.11322263
-0.10689781
0.099238865
0.12105945
-0.10934984
0.10151302
0.12908868
-0.11200117
0.10397194
0.13732425
-0.11484988
0.10661431
-0.11789629
0.1094418
0.14577874
0.0066842854
-0.10885016
0.013195427
-0.10613501
0.019575969
-0.10411138
0.025863979
-0.10267106
0.03209204
-0.10174009
0.038288674
-0.10125878
0.044479199
-0.10117869
0.050686357
-0.10146035
0.056930786
-0.10207151
0.063231417
-0.10298579
0.069605788
-0.10418159
0.076070302
-0.10564127
0.082640425
-0.10735048
0.089330874
-0.10929762
0.096155732
-0.11147343
0.10312852
-0.1138706
0.1102622
-0.11648352
0.11756902
-0.11930798
0.12506004
-0.1223409
-0.12558066
0.13274441
0.0059820383
-0.1148322
0.011812582
-0.11196556
0.017525858
-0.10982466
0.023155751
-0.10830095
0.028731516
-0.10731586
0.034278774
-0.10680604
0.039820251
-0.10672017
0.045376334
-0.10701643
0.050965526
-0.10766071
0.056604803
-0.10862507
0.062309885
-0.10988667
0.06809547
-0.11142685
0.07397543
-0.11323044
0.079962958
-0.11528515
0.086070682
-0.11758115
0.092310751
-0.12011067
0.098694899
-0.12286767
0.10523446
-0.12584754
0.11194036
-0.1290468
-0.13246343
0.11882313
0.0052361367
-0.12006835
0.010341728
-0.11707116
0.015345322
-0.11482825
0.020276237
-0.11323186
0.025159922
-0.11219954
0.030018712
-0.11166483
0.034872439
-0.11157389
0.039738918
-0.11188291
0.044634325
-0.11255611
0.049573502
-0.11356424
0.054570205
-0.11488337
0.059637314
-0.11649396
0.064787005
-0.11838013
0.070030877
-0.12052901
0.075380081
-0.12293035
0.080845438
-0.12557602
0.086437553
-0.12845978
0.092166959
-0.13157695
0.098044357
-0.1349242
-0.13849979
0.10408071
0.0044516785
-0.12452003
0.0087942629
-0.12141373
0.013051492
-0.11908547
0.01724787
-0.11742824
0.021404737
-0.11635641
0.025540873
-0.11580097
0.029672993
-0.11570602
0.033816132
-0.11602605
0.037983965
-0.11672394
0.042189058
-0.11776933
0.046443073
-0.11913738
0.050756955
-0.12080784
0.055141065
-0.12276423
0.0596053
-0.12499325
0.064159214
-0.12748426
0.068812123
-0.13022894
0.073573222
-0.13322089
0.078451708
-0.13645543
0.083456928
-0.13992942
-0.14364114
0.088598286
0.0036346918
-0.12815472
0.0071824247
-0.12496146
0.010662499
-0.12256554
0.014094376
-0.12086012
0.017495062
-0.1197571
0.020879579
-0.11918549
0.024261341
-0.11908778
0.027652451
-0.11941716
0.031063947
-0.12013543
0.034505988
-0.12121137
0.037988033
-0.12261943
0.04151898
-0.12433879
0.04510726
-0.12635251
0.048760955
-0.12864694
0.052487873
-0.13121118
0.056295641
-0.13403671
0.06019177
-0.13711702
0.064183736
-0.1404474
0.068279014
-0.1440247
-0.14784701
0.072484887
0.0027916601
-0.13094637
0.0055191358
-0.12768894
0.0081973787
-0.12524378
0.010840618
-0.12350336
0.013461365
-0.12237784
0.016070747
-0.12179487
0.018678747
-0.12169578
0.021294422
-0.12203283
0.023926062
-0.12276707
0.026581332
-0.12386663
0.029267396
-0.12530549
0.031991006
-0.1270624
0.034758585
-0.12912009
0.037576303
-0.13146465
0.040450116
-0.13408499
0.043385848
-0.13697244
0.04638921
-0.14012038
0.04946584
-0.14352402
0.0526213
-0.14718016
-0.15108664
0.05586093
0.001929369
-0.13287574
0.0038178474
-0.12957741
0.005675877
-0.12710181
0.007512349
-0.12533982
0.0093352
-0.12420069
0.011151567
-0.12361124
0.012967931
-0.12351214
0.014790231
-0.12385513
0.016623939
-0.12460077
0.018474161
-0.12571686
0.020345703
-0.12717703
0.02224312
-0.12895981
0.024170761
-0.13104773
0.026132821
-0.13342671
0.028133363
-0.13608554
0.030176349
-0.13901543
0.032265673
-0.14220971
0.034405157
-0.1456635
0.036598543
-0.14937354
-0.15333757
0.038849476
0.0010548262
-0.13393056
0.0020923884
-0.13061497
0.0031182462
-0.12812767
0.0041359634
-0.12635754
0.0051488799
-0.12521361
0.0061601278
-0.12462249
0.0071726564
-0.12452467
0.0081892482
-0.12487171
0.0092125342
-0.12562405
0.010245028
-0.12674935
0.011289147
-0.12822115
0.012347212
-0.13001787
0.01342148
-0.13212199
0.014514141
-0.13451937
0.015627337
-0.13719874
0.01676318
-0.14015127
0.01792374
-0.14337026
0.019111045
-0.14685081
0.020327106
-0.1505896
-0.15458452
0.021574052
0.00017529954
-0.13410586
0.00035686618
-0.13079654
0.0005450712
-0.12831587
0.00073827454
-0.12655074
0.00093525902
-0.1254106
0.0011351756
-0.12482241
0.0013374581
-0.12472695
0.0015417373
-0.12507599
0.0017478153
-0.12583013
0.0019556157
-0.12695715
0.0021651614
-0.1284307
0.0023765439
-0.13022926
0.0025899182
-0.13233536
0.0028054699
-0.13473492
0.0030234315
-0.13741669
0.0032440523
-0.14037189
0.0034675937
-0.1435938
0.0036942999
-0.14707751
0.0039243694
-0.15081967
0.004158074
-0.15481823
0.01055633
-0.010556331
4.4846998e-10
0.02083337
-0.010277039
5.537617e-10
0.030920774
-0.010087403
1.1249625e-09
0.040872584
-0.0099518108
1.3078696e-09
0.050736981
-0.0098643998
7.5941651e-10
0.060556892
-0.0098199144
1.7107293e-10
0.070370804
-0.0098139135
1.5645207e-10
0.080213519
-0.0098427146
3.6048086e-10
0.090116802
-0.0099032837
8.5231822e-11
0.10010993
-0.0099931275
-5.7525598e-10
0.11022013
-0.010110203
-7.8489332e-10
0.12047297
-0.010252841
-1.7425974e-10
0.13089267
-0.010419689
5.0367994e-10
0.14150232
-0.010609653
3.3461529e-10
0.15232419
-0.010821866
-4.3587669e-10
0.16337983
-0.011055643
-6.3530116e-10
0.17469029
-0.011310467
1.9533823e-10
0.18627626
-0.01158596
1.09597e-09
0.19815812
-0.011881865
1.0936158e-09
-0.012198054
0.21035617
4.2413321e-10
0.010507392
-0.021063723
0.020752674
-0.020522316
0.030801547
-0.020136273
0.040711418
-0.019861682
0.050531719
-0.019684704
0.060305926
-0.019594121
0.070072791
-0.019580779
0.07986726
-0.019637184
0.089721174
-0.019757199
0.099663842
-0.019935796
0.1097225
-0.020168861
0.1199227
-0.020453038
0.13028861
-0.020785602
0.14084331
-0.021164357
0.15160901
-0.021587558
0.16260721
-0.022053838
0.17385889
-0.022562154
0.18538467
-0.023111736
0.19720485
-0.023702051
-0.024332677
0.20933947
0.010388614
-0.031452334
0.020522097
-0.030655792
0.030459254
-0.030073426
0.040256886
-0.029659314
0.049964295
-0.029392113
0.059624835
-0.02925466
0.069277096
-0.029233039
0.078955823
-0.029315912
0.088692642
-0.029494019
0.098516633
-0.029759788
0.1084548
-0.030107031
0.11853246
-0.030530701
0.12877356
-0.031026705
0.13920096
-0.031591749
0.14983661
-0.032223216
0.16070184
-0.032919064
0.17181742
-0.033677733
0.18320377
-0.034498077
0.19488101
-0.0353793
-0.03632071
0.20686904
0.010195881
-0.04164821
0.02014294
-0.040602844
0.029896467
-0.039826952
0.039512122
-0.03927497
0.049038378
-0.03891837
0.058517905
-0.038734187
0.067988691
-0.038703823
0.077484925
-0.038812143
0.087037704
-0.0390468
0.096675613
-0.039397703
0.10642519
-0.039856609
0.11631129
-0.040416802
0.12635743
-0.041072841
0.13658604
-0.041820352
0.14701869
-0.042655865
0.1576763
-0.04357668
0.16857932
-0.044580751
0.17974784
-0.045666598
0.19120174
-0.046833202
-0.048079743
0.20296078
0.0099294099
-0.051577614
0.019617545
-0.050290978
0.029117241
-0.04932665
0.038482572
-0.048640303
0.047760674
-0.048196473
0.056993074
-0.047966584
0.06621675
-0.047927495
0.075464988
-0.048060378
0.084768061
-0.048349875
0.094153794
-0.048783438
0.103648
-0.04935082
0.11327488
-0.050043675
0.12305728
-0.050855242
0.13301703
-0.051780091
0.14317508
-0.052813924
0.15355182
-0.053953412
0.16416713
-0.055196066
0.17504065
-0.056540119
0.18619187
-0.05798442
-0.059528249
0.19764037
0.0095909593
-0.061168573
0.018949807
-0.059649829
0.028127538
-0.058504384
0.037176128
-0.057688894
0.046140911
-0.057161253
0.055061847
-0.056887515
0.063974536
-0.056840179
0.072911032
-0.056996874
0.081900502
-0.057339347
0.09096975
-0.057852686
0.10014365
-0.058524715
0.10944549
-0.059345511
0.11889728
-0.060307032
0.12852
-0.061402817
0.13833384
-0.062627759
0.14835834
-0.063977917
0.15861265
-0.065450379
0.16911569
-0.067043156
0.17988635
-0.068755087
-0.070585945
0.19094405
0.0091832268
-0.070351801
0.018145103
-0.068611706
0.026935277
-0.067294558
0.035603136
-0.066356752
0.044191774
-0.065749887
0.052739192
-0.065434928
0.061279263
-0.065380248
0.069842508
-0.06556012
0.078456713
-0.065953553
0.087147426
-0.066543398
0.095938353
-0.06731564
0.1048517
-0.068258853
0.11390842
-0.069363759
0.1231285
-0.070622896
0.13253108
-0.072030336
0.14213465
-0.073581497
0.15195727
-0.075272996
0.16201671
-0.077102597
0.17233085
-0.079069226
-0.081173885
0.18291879
0.0087097781
-0.07906158
0.017210214
-0.077112139
0.025550242
-0.075634583
0.033776283
-0.074582792
0.041928778
-0.073902379
0.050043384
-0.073549533
0.058151918
-0.073488784
0.066283083
-0.073691289
0.074463039
-0.074133511
0.082715854
-0.074796214
0.091063886
-0.075663672
0.09952808
-0.076723047
0.10812822
-0.077963896
0.1168831
-0.079377779
0.12581071
-0.080957946
0.13492829
-0.082699073
0.14425237
-0.084597081
0.15379883
-0.086649059
0.16358305
-0.08885344
-0.091212697
0.17362186
0.0081754245
-0.087237003
0.016153273
-0.085089986
0.023983904
-0.083465215
0.031710408
-0.082309297
0.039370069
-0.081562041
0.046995799
-0.081175266
0.054617035
-0.081110026
0.062260398
-0.081334654
0.069950195
-0.081823306
0.077708828
-0.082554847
0.085557145
-0.083511991
0.093514705
-0.084680606
0.10160001
-0.086049196
0.10983066
-0.087608432
0.11822351
-0.089350799
0.12679469
-0.091270247
0.13555942
-0.093361809
0.1445314
-0.095621042
0.15372088
-0.098042917
-0.10062237
0.16313055
0.0075882185
0.014983334
0.022248997
0.029422248
0.036536271
0.043620784
0.050702562
0.057805912
0.064953097
0.072164693
0.079459889
0.086856738
0.094372364
0.10202318
0.10982507
0.11779369
0.1259449
0.1342958
0.14286718
0.15168661
0.21324506
-0.0028888946
-1.1576454e-10
0.21570799
-0.0024629274
-1.1171935e-10
0.21781374
-0.0021057541
4.2880096e-10
0.21961652
-0.0018027873
6.9115124e-10
0.22116062
-0.0015441014
9.9768999e-10
0.22248238
-0.0013217574
4.9509469e-10
0.22361189
-0.0011295107
-8.427334e-10
0.22457433
-0.00096244313
-1.0839268e-09
0.22539094
-0.00081661476
-4.6119811e-10
0.22607971
-0.00068877281
-6.2292395e-10
0.2266559
-0.00057618773
-1.3170409e-09
0.22713244
-0.00047654358
1.5608855e-11
0.22752031
-0.00038786862
1.0083781e-09
0.22782882
-0.00030851795
7.9301218e-11
0.22806592
-0.00023709717
-7.0525417e-10
0.22823836
-0.00017244186
1.3144491e-10
0.22835193
-0.00011357511
7.5446138e-10
0.2284116
-5.9672462e-05
-1.3829861e-09
0.22842163
-1.0028133e-05
-2.4538991e-09
0.22838567
3.5963753e-05
-5.1466178e-10
0.22830685
7.8819849e-05
8.402934e-10
0.22818787
0.00011898794
2.3506184e-10
0.22803101
0.00015686133
-7.7155006e-10
0.22783822
0.00019278548
-3.8651574e-10
0.22761116
0.00022706132
5.9055497e-10
0.22735121
0.00025995371
7.1683395e-10
0.22705951
0.00029169957
5.4849703e-10
0.226737
0.00032250934
-4.8411957e-11
0.22638443
0.00035257089
-3.0288164e-10
0.22600238
0.00038205323
1.0195639e-09
0.22559127
0.00041110614
1.5115109e-09
0.2251514
0.00043986797
2.0922634e-10
0.22468293
0.00046846661
-1.080516e-09
0.22418592
0.00049701507
-1.3273136e-09
0.2236603
0.00052562011
9.648977e-11
0.22310592
0.00055438218
1.3171516e-09
0.22252253
0.00058339123
-2.2523829e-10
0.22190979
0.00061273308
-1.0246567e-09
0.2212673
0.00064249375
-5.8545935e-11
0.22059455
0.00067275419
-1.9839667e-11
0.21989096
0.00070358985
1.1829506e-09
0.21915587
0.00073508145
-1.9757213e-09
0.21838858
0.00076729394
2.6029015e-09
0.21758825
0.00080034068
-1.2221147e-08
0.216754
0.00083424011
1.7016092e-08
0.21588483
0.00086918808
-2.3314259e-08
0.21497969
0.00090512843
1.8235793e-08
0.21403738
0.00094230483
5.0810367e-09
0.2130566
0.0009808114
-3.2615629e-08
0.001020689
1.0975599e-08
0.2121613
-0.0057107209
0.21457866
-0.0048802944
0.21665636
-0.0041834546
0.21844336
-0.0035897848
0.21998027
-0.0030810179
0.22130085
-0.0026423415
0.22243346
-0.0022621235
0.22340216
-0.0019311487
0.22422746
-0.0016419148
0.22492682
-0.0013881378
0.22551509
-0.0011644644
0.2260049
-0.00096635658
0.22640698
-0.00078995669
0.22673048
-0.00063202207
0.22698322
-0.00048983886
0.22717191
-0.00036112682
0.22730229
-0.00024396045
0.22737932
-0.00013670357
0.22740727
-3.7966086e-05
0.2273898
5.34414e-05
0.22733007
0.00013855258
0.22723079
0.00021826607
0.22709429
0.00029336367
0.22692254
0.00036452865
0.22671724
0.00043236187
0.2264798
0.00049739619
0.22621139
0.00056010322
0.225913
0.00062090218
0.22558541
0.00068016704
0.22522923
0.00073823072
0.22484493
0.00079539861
0.22443284
0.00085195056
0.22399317
0.0009081355
0.22352601
0.000964182
0.22303134
0.0010202968
0.22250905
0.0010766716
0.22195894
0.0011334977
0.22138072
0.0011909535
0.22077402
0.0012491973
0.22013839
0.001308385
0.2194733
0.0013686731
0.21877815
0.0014302226
0.21805227
0.0014931925
0.2172949
0.0015577236
0.2165052
0.0016239724
0.21568225
0.0016921112
0.21482504
0.0017623598
0.21393244
0.0018349065
0.21300323
0.0019099979
0.0019879274
0.20958128
-0.0084229551
0.21192741
-0.0072264318
0.21396512
-0.0062211578
0.21573377
-0.0053584392
0.21726729
-0.0046145497
0.21859487
-0.0039699223
0.21974193
-0.0034091788
0.22073064
-0.0029198668
0.22158023
-0.0024915043
0.2223072
-0.0021151027
0.22292564
-0.0017829173
0.22344764
-0.0014883491
0.22388351
-0.0012258307
0.22424216
-0.00099066445
0.22453123
-0.00077891978
0.22475737
-0.00058727105
0.22492632
-0.00041290083
0.22504303
-0.00025341661
0.22511182
-0.00010676033
0.22513642
2.8844331e-05
0.22512004
0.00015492935
0.22506548
0.00027282795
0.22497514
0.00038370877
0.22485107
0.00048859606
0.22469505
0.00058838975
0.22450856
0.00068388481
0.22429287
0.0007757865
0.22404906
0.00086472219
0.22377797
0.0009512521
0.22348032
0.0010358775
0.22315667
0.0011190532
0.22280742
0.0012011916
0.22243289
0.001282666
0.22203326
0.0013638169
0.2216086
0.0014449544
0.22115891
0.0015263667
0.22068408
0.0016083316
0.22018392
0.0016911091
0.21965818
0.0017749384
0.21910651
0.0018600509
0.21852851
0.0019466761
0.21792368
0.0020350462
0.21729149
0.0021253895
0.21663129
0.0022179237
0.21594238
0.0023128837
0.21522397
0.0024105225
0.21447519
0.0025111432
0.21369505
0.00261504
0.21288248
0.0027225729
0.0028341737
0.20552256
-0.010984744
0.20777285
-0.0094767164
0.20975872
-0.0082070307
0.21150598
-0.0071057048
0.21303915
-0.0061477169
0.21438126
-0.0053120338
0.21555382
-0.0045817401
0.21657634
-0.0039423792
0.217466
-0.0033811723
0.21823776
-0.0028868603
0.21890455
-0.0024497123
0.21947761
-0.0020614164
0.21996675
-0.0017149588
0.2203805
-0.0014044279
0.22072639
-0.0011248096
0.22101096
-0.00087184283
0.22123997
-0.00064190557
0.22141843
-0.0004318768
0.22155072
-0.00023905674
0.22164069
-6.1117575e-05
0.22169166
0.00010396187
0.22170653
0.00025795245
0.22168783
0.00040240342
0.22163775
0.00053867206
0.22155819
0.00066795461
0.22145076
0.00079130998
0.22131688
0.00090967468
0.22115772
0.0010238822
0.22097429
0.001134678
0.22076744
0.0012427294
0.22053785
0.0013486382
0.2202861
0.0014529487
0.22001261
0.0015561555
0.21971772
0.0016587075
0.21940166
0.0017610149
0.21906457
0.0018634582
0.2187065
0.0019663985
0.21832744
0.0020701732
0.21792728
0.0021750964
0.21750586
0.00228147
0.21706295
0.0023895916
0.21659823
0.0024997583
0.21611136
0.0026122629
0.21560189
0.0027273924
0.21506933
0.0028454536
0.21451307
0.002966773
0.21393249
0.0030917331
0.2133268
0.003220724
0.21269516
0.0033542138
0.0034927656
0.20001296
-0.013357328
0.20214402
-0.011607777
0.20406582
-0.010128836
0.20578744
-0.0088273285
0.20732214
-0.0076824136
0.20868582
-0.0066757166
0.20989505
-0.0057909711
0.21096549
-0.0050128158
0.21191129
-0.0043269778
0.21274513
-0.0037207058
0.21347835
-0.0031829374
0.21412116
-0.0027042256
0.21468272
-0.0022765223
0.21517125
-0.0018929526
0.21559407
-0.0015476215
0.21595769
-0.0012354674
0.21626789
-0.00095211358
0.21652977
-0.00069376204
0.21674784
-0.00045712396
0.21692607
-0.00023934045
0.21706793
-3.7903029e-05
0.2171765
0.00014937898
0.21725448
0.00032442727
0.21730422
0.00048893027
0.2173278
0.00064437818
0.21732701
0.00079209482
0.21730345
0.00093324254
0.21725846
0.0010688631
0.21719326
0.0011998825
0.21710886
0.0013271345
0.21700613
0.0014513617
0.21688584
0.0015732425
0.21674861
0.0016933839
0.21659498
0.001812344
0.21642537
0.0019306255
0.21624013
0.0020486961
0.21603953
0.0021669973
0.21582377
0.0022859357
0.21559297
0.0024058949
0.2153472
0.0025272403
0.21508646
0.002650329
0.21481071
0.0027755173
0.21451982
0.0029031525
0.21421363
0.003033584
0.2138919
0.0031671802
0.21355434
0.0033043318
0.21320058
0.0034454943
0.21283016
0.0035911431
0.21244253
0.0037418426
0.0038982832
0.19309066
-0.015503936
0.19508015
-0.013597265
0.19692425
-0.011972939
0.19861418
-0.010517261
0.20015157
-0.0092198112
0.2015442
-0.0080683405
0.20280188
-0.0070486488
0.2039347
-0.0061456468
0.20495266
-0.0053449344
0.20586554
-0.0046335766
0.20668283
-0.0040002284
0.20741358
-0.0034349884
0.20806629
-0.0029292359
0.2086488
-0.0024754534
0.20916824
-0.0020670647
0.20963109
-0.0016983223
0.21004317
-0.0013641931
0.21040969
-0.0010602754
0.2107353
-0.00078272983
0.21102414
-0.00052817971
0.21127989
-0.00029366051
0.21150584
-7.6571149e-05
0.2117049
0.00012537109
0.21187964
0.00031418981
0.21203236
0.00049166286
0.21216508
0.00065936948
0.21227962
0.00081870235
0.21237757
0.00097091208
0.21246035
0.0011171028
0.21252922
0.0012582665
0.21258529
0.0013952915
0.21262955
0.0015289795
0.21266289
0.0016600545
0.21268606
0.0017891698
0.21269977
0.0019169216
0.2127046
0.0020438576
0.21270111
0.0021704892
0.21268976
0.002297289
0.21267095
0.0024247008
0.21264505
0.0025531423
0.21261236
0.002683025
0.21257312
0.0028147518
0.21252756
0.0029487177
0.21247582
0.0030853189
0.21241803
0.0032249787
0.21235422
0.0033681397
0.21228439
0.0035153178
0.21220848
0.0036670597
0.2121263
0.0038240235
0.0039870057
0.18480442
-0.017389575
0.1866302
-0.015423037
0.18838082
-0.013723556
0.19003225
-0.012168687
0.19157437
-0.010761944
0.19300418
-0.0094981509
0.19432205
-0.0083665089
0.19553095
-0.0073545456
0.19663601
-0.0064500074
0.19764389
-0.0056414659
0.19856209
-0.004918421
0.19939839
-0.0042712811
0.20016048
-0.0036913321
0.20085574
-0.0031707176
0.20149108
-0.0027024066
0.2020729
-0.0022801347
0.20260705
-0.0018983401
0.20309887
-0.0015520962
0.20355319
-0.0012370523
0.20397437
-0.00094935886
0.20436634
-0.00068562413
0.20473262
-0.00044285298
0.20507639
-0.0002184003
0.2054005
-9.9212785e-06
0.20570751
0.00018465076
0.20599974
0.00036714467
0.20627925
0.00053919091
0.20654792
0.00070223806
0.20680746
0.00085756974
0.20705939
0.0010063363
0.20730511
0.0011495649
0.20754591
0.0012881835
0.20778295
0.0014230222
0.20801729
0.0015548276
0.20824993
0.0016842791
0.20848179
0.0018120005
0.20871371
0.0019385667
0.20894649
0.0020645053
0.20918089
0.0021903069
0.20941759
0.0023164401
0.20965726
0.0024433532
0.20990053
0.002571485
0.21014798
0.0027012672
0.21040017
0.0028331327
0.21065761
0.0029675396
0.21092077
0.0031049765
0.21119009
0.0032460001
0.21146593
0.0033912226
0.21174858
0.0035413697
0.0036973414
0.17521251
-0.018980221
0.17685246
-0.017062987
0.17849447
-0.015365575
0.18010327
-0.013777483
0.18165332
-0.012311998
0.18312708
-0.01097191
0.18451406
-0.0097535022
0.18580996
-0.0086504429
0.18701503
-0.0076550701
0.18813256
-0.0067590021
0.18916772
-0.0059535822
0.19012666
-0.0052302253
0.191016
-0.0045806783
0.19184246
-0.003997176
0.1926126
-0.003472539
0.19333267
-0.0030002078
0.19400858
-0.0025742445
0.19464579
-0.0021893067
0.19524934
-0.0018406067
0.19582386
-0.0015238748
0.19637356
-0.001235319
0.19690227
-0.0009715654
0.19741349
-0.00072961835
0.19791039
-0.00050681644
0.19839585
-0.00030081038
0.1988725
-0.00010951055
0.19934275
6.8939506e-05
0.1998088
0.00023618926
0.20027267
0.00039370467
0.20073622
0.00054278622
0.20120118
0.00068460649
0.20166916
0.00082020726
0.20214166
0.000950521
0.2026201
0.0010763851
0.20310583
0.0011985544
0.2036001
0.0013177215
0.20410416
0.0014345131
0.20461916
0.0015495007
0.20514625
0.0016632193
0.20568652
0.0017761662
0.20624106
0.0018888205
0.2068109
0.0020016419
0.20739708
0.0021150843
0.20800061
0.0022296023
0.20862248
0.0023456759
0.20926363
0.0024638211
0.20992501
0.0025846224
0.2106075
0.0027087366
0.21131192
0.0028369492
0.0029702403
0.16440614
-0.020255813
0.16584812
-0.018504957
0.16737424
-0.016891695
0.1689363
-0.015339543
0.17049009
-0.013865783
0.17200496
-0.012486781
0.17346168
-0.011210231
0.17484935
-0.010038113
0.17616297
-0.0089686879
0.17740168
-0.0079977183
0.17856748
-0.007119394
0.17966428
-0.0063270274
0.18069716
-0.0056135531
0.18167187
-0.0049718725
0.18259441
-0.004395083
0.18347084
-0.0038766307
0.18430701
-0.0034104203
0.18510855
-0.0029908392
0.18588071
-0.0026127649
0.18662841
-0.0022715735
0.18735619
-0.0019631026
0.18806825
-0.0016836214
0.18876843
-0.0014297997
0.18946028
-0.001198667
0.19014706
-0.00098758971
0.19083177
-0.00079422073
0.19151718
-0.00061647247
0.19220587
-0.00045249476
0.19290022
-0.00030064692
0.19360247
-0.00015946666
0.19431473
-2.7648135e-05
0.19503897
9.5964275e-05
0.1957771
0.00021239932
0.1965309
0.00032257962
0.19730213
0.00042733005
0.19809245
0.00052739919
0.19890351
0.00062345451
0.1997369
0.00071610886
0.2005942
0.00080591948
0.20147696
0.00089340425
0.20238672
0.00097905902
0.20332502
0.0010633476
0.20429337
0.0011467334
0.2052933
0.0012296703
0.20632632
0.0013126518
0.20739395
0.0013961942
0.20849767
0.001480898
0.20963897
0.0015674439
0.21081926
0.0016566623
0.001749593
0.15262521
-0.021194408
0.15381718
-0.019696931
0.15517625
-0.018250763
0.1566422
-0.016805503
0.15816213
-0.015385697
0.15969467
-0.014019319
0.16121011
-0.012725671
0.16268817
-0.011516183
0.16411602
-0.010396552
0.16548662
-0.0093683236
0.1667973
-0.0084300611
0.16804854
-0.00757827
0.1692431
-0.0068081086
0.17038516
-0.0061139422
0.17147985
-0.0054897585
0.1725327
-0.0049294769
0.17354943
-0.0044271578
0.17453574
-0.0039771373
0.17549709
-0.0035741165
0.17643873
-0.0032132077
0.17736556
-0.002889943
0.17828221
-0.0026002689
0.17919295
-0.002340537
0.18010176
-0.0021074806
0.18101235
-0.0018981785
0.18192815
-0.0017100234
0.18285238
-0.0015406982
0.18378804
-0.0013881485
0.18473794
-0.0012505503
0.18570475
-0.0011262822
0.18669101
-0.0010139072
0.18769914
-0.00091215596
0.18873144
-0.00081990523
0.18979018
-0.00073615563
0.19087752
-0.00066001606
0.19199561
-0.00059069401
0.19314655
-0.00052748434
0.19433242
-0.00046975454
0.19555527
-0.00041693047
0.19681715
-0.00036848543
0.19812014
-0.00032393073
0.1994663
-0.00028280571
0.20085769
-0.00024466277
0.20229642
-0.00020905531
0.20378458
-0.00017550922
0.20532429
-0.00014351658
0.20691767
-0.00011248489
0.20856685
-8.1727979e-05
0.2102739
-5.0394571e-05
-1.7394747e-05
0.19089688
-0.019294296
-0.19279699
0.1895312
-0.018331259
0.18852067
-0.017240229
0.18779892
-0.016083754
0.18731583
-0.014902607
0.18702566
-0.013729149
0.1868878
-0.012587812
0.18686749
-0.011495877
0.18693567
-0.010464735
0.18706848
-0.0095011316
0.18724664
-0.0086082287
0.18745487
-0.0077864948
0.18768119
-0.0070344353
0.18791645
-0.0063491954
0.18815373
-0.0057270391
0.18838797
-0.0051637144
0.18861554
-0.0046547245
0.18883394
-0.004195534
0.18904154
-0.0037817183
0.18923739
-0.0034090524
0.189421
-0.0030735616
0.18959229
-0.0027715573
0.18975141
-0.0024996555
0.18989871
-0.0022547722
0.19003463
-0.0020341083
0.19015975
-0.0018351356
0.19027463
-0.0016555835
0.1903799
-0.0014934169
0.19047616
-0.001346812
0.19056402
-0.0012141363
0.19064405
-0.0010939354
0.19071681
-0.0009849158
0.19078282
-0.00088592392
0.1908426
-0.00079592777
0.19089658
-0.00071400468
0.19094522
-0.00063933169
0.19098891
-0.00057117304
0.19102802
-0.00050886496
0.19106289
-0.00045180255
0.19109384
-0.00039942996
0.19112114
-0.00035123014
0.19114504
-0.00030671394
0.19116578
-0.00026540298
0.19118355
-0.00022681848
0.19119849
-0.00019045079
0.19121072
-0.00015575308
0.19122033
-0.00012208763
0.19122731
-8.8711391e-05
0.19123162
-5.4702919e-05
-1.8880887e-05
0.20577706
-0.017454917
-0.20761643
0.20428462
-0.016838821
0.20311195
-0.016067565
0.20221947
-0.015191284
0.20156764
-0.014250779
0.20111803
-0.013279537
0.20083466
-0.012304448
0.2006851
-0.011346315
0.20064092
-0.01042056
0.20067782
-0.0095380391
0.20077543
-0.0087058432
0.20091698
-0.0079280367
0.20108886
-0.0072063212
0.20128028
-0.0065406102
0.20148276
-0.0059295134
0.20168978
-0.0053707303
0.20189642
-0.0048613644
0.20209906
-0.0043981753
0.20229511
-0.003977769
0.20248279
-0.0035967285
0.20266093
-0.0032517069
0.20282887
-0.002939498
0.2029863
-0.002657082
0.20313317
-0.0024016435
0.20326964
-0.0021705786
0.20339601
-0.001961499
0.20351265
-0.0017722294
0.20362003
-0.001600795
0.20371862
-0.0014454059
0.20380893
-0.0013044469
0.20389147
-0.0011764679
0.20396672
-0.0010601682
0.20403517
-0.0009543782
0.20409729
-0.00085804543
0.20415351
-0.00077022514
0.20420425
-0.00069007119
0.2042499
-0.00061682253
0.20429082
-0.00054978842
0.20432736
-0.00048833675
0.20435981
-0.00043188515
0.20438847
-0.00037989016
0.20441359
-0.00033183498
0.2044354
-0.00028721132
0.20445409
-0.0002455079
0.20446982
-0.00020617999
0.2044827
-0.00016864028
0.20449282
-0.0001322046
0.20450018
-9.6070866e-05
0.20450472
-5.9244026e-05
-2.0447779e-05
0.22146334
-0.015614424
-0.22330385
0.2199046
-0.015280083
0.21862198
-0.014784941
0.21759602
-0.014165329
0.21680076
-0.013455516
0.21620735
-0.012686128
0.21578644
-0.011883538
0.21550977
-0.011069655
0.21535127
-0.010262058
0.21528756
-0.0094743322
0.21529825
-0.0087165322
0.2153659
-0.0079956862
0.21547589
-0.0073163076
0.21561616
-0.0066808773
0.21577693
-0.0060902805
0.21595038
-0.0055441881
0.2161304
-0.0050413821
0.21631226
-0.0045800258
0.21649236
-0.0041578763
0.21666808
-0.0037724479
0.21683752
-0.0034211422
0.21699937
-0.0031013481
0.2171528
-0.0028105092
0.21729732
-0.0025461665
0.21743273
-0.0023059882
0.21755902
-0.0020877912
0.21767634
-0.0018895502
0.21778494
-0.0017093958
0.21788515
-0.0015456119
0.21797734
-0.0013966328
0.21806191
-0.0012610385
0.21813928
-0.0011375418
0.21820988
-0.0010249744
0.21827411
-0.00092227817
0.21833238
-0.00082849853
0.21838509
-0.00074277529
0.21843259
-0.0006643289
0.21847525
-0.00059244726
0.21851339
-0.00052647595
0.21854731
-0.00046581004
0.2185773
-0.00040988229
0.21860362
-0.00035814985
0.21862648
-0.00031007562
0.21864609
-0.00026511654
0.2186626
-0.00022269306
0.21867614
-0.00018217678
0.21868677
-0.00014283576
0.21869451
-0.00010380682
0.21869928
-6.4018467e-05
-2.2095613e-05
0.23799559
-0.013816591
-0.23979342
0.23642167
-0.013706176
0.23507775
-0.013441005
0.23395851
-0.013046099
0.23305052
-0.012547536
0.23233508
-0.011970694
0.23179059
-0.011339051
0.2313944
-0.010673466
0.23112417
-0.0099918252
0.23095879
-0.0093089505
0.23087896
-0.0086367054
0.23086751
-0.0079842369
0.23090949
-0.0073582835
0.23099212
-0.0067635136
0.23110471
-0.0062028678
0.23123841
-0.0056778866
0.23138604
-0.0051890101
0.23154186
-0.0047358385
0.23170132
-0.0043173479
0.23186095
-0.0039320736
0.23201807
-0.0035782641
0.23217072
-0.0032539999
0.2323175
-0.0029572799
0.23245742
-0.0026860863
0.23258986
-0.0024384365
0.23271449
-0.0022124199
0.23283116
-0.0020062189
0.23293988
-0.00181812
0.2330408
-0.001646524
0.23313412
-0.0014899513
0.23322012
-0.0013470413
0.23329912
-0.0012165444
0.23337146
-0.0010973148
0.23343749
-0.00098830683
0.23349756
-0.00088857054
0.23355203
-0.00079724251
0.23360123
-0.0007135334
0.2336455
-0.00063671726
0.23368515
-0.00056612388
0.23372047
-0.00050113082
0.23375174
-0.00044115049
0.2337792
-0.00038561638
0.23380309
-0.0003339645
0.2338236
-0.0002856214
0.23384088
-0.00023997348
0.23385505
-0.000196351
0.23386619
-0.00015397323
0.2338743
-0.0001119142
0.2338793
-6.9023407e-05
-2.3823419e-05
0.25542004
-0.012104244
-0.25713239
0.2538761
-0.012162251
0.25251539
-0.012080289
0.25134295
-0.011873661
0.25035572
-0.011560314
0.24954441
-0.011159392
0.24889538
-0.010690024
0.24839232
-0.010170401
0.24801762
-0.0096171326
0.24775353
-0.0090448564
0.24758288
-0.0084660543
0.24748968
-0.0078910354
0.24745942
-0.00732803
0.24747927
-0.0067833608
0.24753807
-0.0062616606
0.24762629
-0.0057661112
0.24773597
-0.0052986835
0.24786048
-0.0048603609
0.24799447
-0.0044513429
0.24813363
-0.0040712283
0.24827454
-0.0037191745
0.24841457
-0.0033940249
0.2485517
-0.0030944093
0.24868444
-0.0028188278
0.24881173
-0.0025657194
0.24893282
-0.0023335112
0.24904725
-0.0021206519
0.24915477
-0.001925637
0.24925527
-0.0017470305
0.2493488
-0.0015834778
0.24943547
-0.0014337103
0.24951547
-0.0012965442
0.24958903
-0.0011708811
0.24965644
-0.0010557086
0.24971797
-0.00095009764
0.24977392
-0.00085319469
0.24982459
-0.00076421157
0.24987029
-0.00068241823
0.24991131
-0.00060713682
0.24994791
-0.00053773347
0.24998036
-0.00047360474
0.25000891
-0.0004141638
0.25003377
-0.00035882269
0.25005512
-0.00030697976
0.25007314
-0.00025798865
0.25008793
-0.00021113854
0.25009955
-0.00016559928
0.25010802
-0.00012038089
0.25011325
-7.4251716e-05
-2.5628764e-05
0.27379873
-0.010507226
-0.27539575
0.27232089
-0.01068443