/*--------------------------------*- C++ -*----------------------------------*\
| =========                 |                                                 |
| \\      /  F ield         | foam-extend: Open Source CFD                    |
|  \\    /   O peration     | Version:     4.1                                |
|   \\  /    A nd           | Web:         http://www.foam-extend.org         |
|    \\/     M anipulation  |                                                 |
\*---------------------------------------------------------------------------*/
FoamFile
{
    version     2.0;
    format      ascii;
    class       volVectorField;
    location    "0";
    object      U;
}
// * * * * * * * * * * * * * * * * * * * * * * * * * * * * * * * * * * * * * //

dimensions      [0 1 -1 0 0 0 0];

internalField   nonuniform List<vector> 
9200
(
(1.0757442 -0.93368004 -1.1159071e-18)
(1.0666894 -0.81819602 -1.4984742e-19)
(1.058982 -0.71976495 6.9759082e-19)
(1.052363 -0.63530937 2.6477948e-19)
(1.0466493 -0.56249924 3.1625343e-19)
(1.0416944 -0.49945085 0)
(1.0373799 -0.44463199 0)
(1.0336088 -0.39678819 6.9327534e-19)
(1.0303011 -0.35488575 1.4415432e-18)
(1.0273902 -0.31806776 7.4034169e-19)
(1.0248207 -0.2856197 1.0434527e-18)
(1.0225459 -0.25694254 6.8819277e-19)
(1.0205263 -0.23153159 1.3868143e-18)
(1.0187286 -0.20895958 6.950323e-19)
(1.0171246 -0.18886317 0)
(1.0156904 -0.17093217 4.6064234e-19)
(1.0144065 -0.15490094 6.021628e-20)
(1.0132572 -0.14054208 -3.8538333e-18)
(1.0122315 -0.12766289 1.7395725e-19)
(1.0113257 -0.11610712 -1.3078725e-18)
(1.2208921 -0.9106606 -2.4360035e-18)
(1.1937899 -0.79782429 -7.1837201e-20)
(1.170799 -0.70169226 -8.2362746e-21)
(1.1510547 -0.61924451 0)
(1.1340224 -0.54818637 0)
(1.1192664 -0.48666987 0)
(1.1064309 -0.43319416 0)
(1.0952241 -0.38653138 -1.3054689e-18)
(1.0854051 -0.34567031 -6.7533156e-19)
(1.0767741 -0.3097729 1.8232007e-18)
(1.0691643 -0.27814059 1.7477196e-18)
(1.0624359 -0.25018794 -1.0496345e-18)
(1.0564709 -0.22542186 9.920769e-19)
(1.0511693 -0.20342515 -1.5425008e-18)
(1.0464461 -0.18384327 -3.3283939e-19)
(1.0422285 -0.16637401 3.8939598e-19)
(1.038454 -0.15075914 8.0519631e-19)
(1.0350683 -0.13677812 1.1426021e-18)
(1.0320228 -0.12424356 2.4882611e-18)
(1.0292765 -0.11300121 -1.3318535e-18)
(1.3605973 -0.86517377 -1.2590497e-18)
(1.3161659 -0.75788475 1.1438431e-18)
(1.2783897 -0.66645687 -8.5982882e-19)
(1.2459757 -0.58806518 2.2960236e-19)
(1.2180296 -0.52051843 0)
(1.1938289 -0.46205322 0)
(1.1727863 -0.41123853 0)
(1.1544205 -0.36690435 -6.9588914e-19)
(1.1383349 -0.32808748 0)
(1.1242006 -0.29398996 1.217436e-18)
(1.1117432 -0.2639468 1.1754583e-18)
(1.1007326 -0.23740085 -5.3135608e-19)
(1.0909751 -0.21388293 -6.1450148e-19)
(1.0823063 -0.19299607 -4.1911292e-19)
(1.0745866 -0.17440292 -1.2963952e-18)
(1.0676962 -0.15781571 -1.3244411e-19)
(1.0615322 -0.14298798 -1.2225189e-18)
(1.0560049 -0.12970793 1.5130035e-18)
(1.0510355 -0.11779265 2.5249385e-18)
(1.0465568 -0.1070859 0)
(1.4914525 -0.79839602 -2.1672451e-20)
(1.4307992 -0.69935252 -4.3875509e-21)
(1.3791499 -0.61492256 -1.0168342e-18)
(1.3348512 -0.54254195 -8.9584153e-20)
(1.2966714 -0.48018355 -4.4364969e-19)
(1.2636179 -0.42621593 -1.3659303e-20)
(1.2348848 -0.3793155 2.5739607e-19)
(1.2098125 -0.33840038 -7.4449037e-19)
(1.1878576 -0.30258013 0)
(1.1685699 -0.2711172 6.5408476e-19)
(1.151574 -0.2433971 1.7048904e-18)
(1.1365552 -0.21890504 2.3201262e-18)
(1.1232485 -0.1972075 -9.7056381e-19)
(1.1114295 -0.17793763 -5.0084578e-19)
(1.1009074 -0.16078361 -1.4221366e-18)
(1.091519 -0.14547912 4.3454131e-19)
(1.0831243 -0.13179563 0)
(1.0756027 -0.11953595 0)
(1.0688494 -0.10852858 2.3757407e-18)
(1.0627763 -0.098624892 0)
(1.6102609 -0.71198727 1.7793989e-20)
(1.5348898 -0.62366331 -5.244322e-19)
(1.470642 -0.54834728 -1.0612119e-18)
(1.4155496 -0.48378352 0)
(1.3680758 -0.4281627 9.6341294e-19)
(1.326983 -0.38002857 -1.0912761e-18)
(1.2912665 -0.33819967 8.1720311e-19)
(1.2601045 -0.3017103 -5.3571591e-19)
(1.2328205 -0.26976574 2.1655989e-19)
(1.208854 -0.24170778 8.962268e-19)
(1.1877377 -0.2169881 0)
(1.1690802 -0.19514728 5.782617e-19)
(1.1525519 -0.17579846 1.1155881e-18)
(1.1378738 -0.15861425 4.0811484e-19)
(1.1248088 -0.14331632 4.18382e-19)
(1.1131545 -0.1296669 -3.8706186e-19)
(1.1027377 -0.11746187 -3.9447425e-19)
(1.0934094 -0.10652516 8.8216768e-19)
(1.0850415 -0.096704005 8.1833078e-19)
(1.0775248 -0.087866215 6.8092393e-19)
(1.7141171 -0.60807543 -1.2302913e-21)
(1.6259 -0.53266703 3.876094e-20)
(1.5506529 -0.46834792 0)
(1.4861338 -0.41320927 -4.7194139e-19)
(1.4305408 -0.36570677 1.5648835e-18)
(1.3824233 -0.32459728 -9.1193872e-19)
(1.3406034 -0.28887207 -1.8209948e-19)
(1.3041184 -0.2577066 6.1136904e-19)
(1.2721754 -0.23042223 -7.4747753e-19)
(1.2441178 -0.20645694 7.0154465e-19)
(1.2193983 -0.18534245 -1.7799657e-19)
(1.1975584 -0.16668643 -1.1483905e-18)
(1.1782123 -0.15015849 -9.5189965e-19)
(1.1610332 -0.13547904 -2.1980908e-19)
(1.1457437 -0.12241037 -1.040205e-18)
(1.1321072 -0.1107495 -3.3641031e-19)
(1.119921 -0.10032229 0)
(1.1090113 -0.090978809 -3.2095823e-19)
(1.0992284 -0.082589468 -2.0285681e-20)
(1.0904428 -0.075042374 -5.904786e-19)
(1.8004786 -0.48921083 7.2876942e-19)
(1.7016098 -0.42858243 -1.3203359e-18)
(1.6172445 -0.37686069 6.0328546e-19)
(1.5449051 -0.33251588 -6.0320101e-19)
(1.4825723 -0.2943082 4.4281995e-19)
(1.42862 -0.26123937 6.45105e-20)
(1.3817282 -0.23249912 -7.9805904e-19)
(1.3408175 -0.20742498 6.7174856e-19)
(1.3049993 -0.18547167 -1.6727211e-18)
(1.2735374 -0.1661875 8.5094873e-19)
(1.2458186 -0.14919607 6.845846e-19)
(1.2213288 -0.13418202 -1.4537032e-19)
(1.1996355 -0.12087973 -7.2964284e-19)
(1.1803725 -0.10906445 -7.0181127e-19)
(1.163229 -0.098545097 -1.066255e-18)
(1.1479396 -0.089158583 2.5106334e-19)
(1.1342772 -0.080765094 4.9981296e-19)
(1.1220469 -0.073244417 -6.683584e-19)
(1.1110805 -0.066492944 8.7344731e-19)
(1.1012312 -0.060421071 0)
(1.8672274 -0.3583067 7.421506e-19)
(1.7601692 -0.31394422 -3.4593119e-19)
(1.6687979 -0.27609573 5.9603332e-19)
(1.5904418 -0.24363849 3.0110066e-19)
(1.5229173 -0.21566778 -1.9872951e-20)
(1.4644655 -0.19145482 -4.9506438e-20)
(1.4136585 -0.17040785 0)
(1.3693283 -0.15204289 0)
(1.3305134 -0.13596149 -7.7392474e-19)
(1.2964171 -0.12183349 0)
(1.2663753 -0.10938371 7.8262387e-19)
(1.2398319 -0.098381531 5.6463348e-21)
(1.2163183 -0.088632708 -5.4272046e-21)
(1.1954383 -0.079972855 1.0030542e-19)
(1.1768551 -0.072262232 0)
(1.1602814 -0.06538158 0)
(1.145471 -0.059228715 0)
(1.1322126 -0.053715828 -1.6973984e-19)
(1.1203237 -0.048767309 -6.2529789e-19)
(1.1096442 -0.044317539 0)
(1.9127213 -0.21856981 1.1341129e-21)
(1.8001417 -0.19154266 3.4458345e-19)
(1.7040511 -0.16848575 0)
(1.6216313 -0.14870695 1.3054148e-19)
(1.550592 -0.13165722 2.4952315e-19)
(1.4890874 -0.1168941 1.3881769e-20)
(1.4356186 -0.10405818 1.5661035e-20)
(1.3889594 -0.09285538 -2.2628899e-19)
(1.3480999 -0.083043509 1.815204e-19)
(1.3122033 -0.074421819 0)
(1.2805719 -0.066822911 3.0151991e-20)
(1.2526211 -0.060106453 1.9611797e-19)
(1.2278586 -0.054154207 -2.9243873e-20)
(1.2058677 -0.048866106 -1.7745601e-19)
(1.1862942 -0.044157095 3.0706847e-19)
(1.168836 -0.039954547 2.8662573e-20)
(1.1532341 -0.036196244 0)
(1.1392659 -0.032828772 0)
(1.1267392 -0.029806105 -5.0312225e-19)
(1.115486 -0.027087916 -5.0281337e-20)
(1.9358356 -0.073423245 0)
(1.8205384 -0.064356228 0)
(1.7221281 -0.056629334 0)
(1.6376962 -0.049997417 -1.4273921e-19)
(1.5649046 -0.044277372 2.648011e-19)
(1.5018686 -0.039321881 -2.4149617e-21)
(1.4470569 -0.035011221 -1.3363756e-21)
(1.3992166 -0.031247383 -2.1197431e-19)
(1.3573153 -0.027949588 2.0072305e-19)
(1.3204973 -0.025050794 2.7347487e-21)
(1.288049 -0.022495043 0)
(1.2593724 -0.020235408 1.6480383e-19)
(1.2339634 -0.018232323 0)
(1.2113956 -0.01645229 -1.4734399e-19)
(1.1913063 -0.014866826 2.7939703e-19)
(1.173386 -0.013451598 0)
(1.1573694 -0.012185801 0)
(1.1430281 -0.011051631 0)
(1.1301652 -0.01003393 0)
(1.1186087 -0.0091195161 -3.9744115e-21)
(0.068639626 -0.073626119 2.8276119e-21)
(0.18413353 -0.06438449 0)
(0.28258214 -0.056657743 0)
(0.36704938 -0.050017642 -1.7552353e-20)
(0.43986524 -0.044289235 -1.4580683e-20)
(0.50291461 -0.039327276 6.1049983e-20)
(0.55773099 -0.035012358 3.2875056e-20)
(0.60556998 -0.031246255 1.1138534e-20)
(0.64746616 -0.027947841 -7.5101332e-20)
(0.68427725 -0.025049785 -6.8172535e-20)
(0.71671836 -0.022495911 0)
(0.74538895 -0.020239113 -9.1856675e-21)
(0.77079403 -0.018239696 0)
(0.79336107 -0.016464051 8.3594094e-21)
(0.81345352 -0.014883598 -1.5959442e-20)
(0.83138166 -0.01347393 0)
(0.84741143 -0.012214118 0)
(0.86177158 -0.011086152 0)
(0.87465958 -0.010074478 0)
(0.88624644 -0.0091656912 1.0147616e-19)
(0.091661343 -0.21886448 -1.0537102e-20)
(0.20441803 -0.19150586 -7.0695434e-20)
(0.30061229 -0.16847558 0)
(0.38309138 -0.14870676 7.625857e-20)
(0.45416448 -0.13166062 8.8099347e-20)
(0.51568628 -0.11689907 -1.1789565e-19)
(0.56916123 -0.10406462 -2.5427743e-19)
(0.61581936 -0.09286403 1.3443008e-20)
(0.65667341 -0.083055455 1.1658353e-19)
(0.69256245 -0.074438269 0)
(0.7241858 -0.066845159 0)
(0.75212942 -0.060135859 -1.4745048e-20)
(0.77688683 -0.054192197 2.4721369e-19)
(0.79887568 -0.048914142 2.6710504e-19)
(0.81845099 -0.044216639 -2.5935235e-19)
(0.83591576 -0.040027053 -2.4101275e-19)
(0.85152966 -0.036283106 0)
(0.86551596 -0.032931183 0)
(0.87806731 -0.029924965 4.8103227e-19)
(0.88935013 -0.027224057 4.230058e-19)
(0.13711626 -0.35856929 -1.4873399e-19)
(0.24432972 -0.31390835 1.2463516e-19)
(0.33582428 -0.27607845 -4.2639792e-20)
(0.41425428 -0.24363321 -1.4900223e-19)
(0.48182101 -0.21567032 1.0135e-19)
(0.54029439 -0.19146315 2.4708206e-19)
(0.59110953 -0.1704214 0)
(0.63543911 -0.15206202 0)
(0.67424809 -0.1359871 1.6703226e-19)
(0.70833567 -0.12186684 0)
(0.73836765 -0.10942635 -6.529298e-19)
(0.76490179 -0.098435284 -2.6769492e-20)
(0.78840775 -0.088699612 2.5875514e-20)
(0.80928286 -0.080055164 -5.0274929e-19)
(0.82786486 -0.072362395 0)
(0.844442 -0.065502175 0)
(0.85926129 -0.059372351 0)
(0.87253512 -0.053884972 8.5238921e-19)
(0.88444675 -0.048963994 9.3801951e-19)
(0.89515433 -0.044542468 0)
(0.20384331 -0.48938589 -2.0454887e-19)
(0.30285366 -0.42856046 3.7225284e-19)
(0.3873489 -0.37685032 -1.6587529e-19)
(0.45976899 -0.33251518 3.4792969e-19)
(0.52214885 -0.29431546 7.6555759e-20)
(0.57612556 -0.26125365 0)
(0.62302663 -0.23252031 2.5861705e-19)
(0.66393664 -0.20745364 -2.4239719e-19)
(0.69974785 -0.18550889 4.2741139e-19)
(0.73119903 -0.16623476 -7.1290002e-19)
(0.75890554 -0.14925527 -2.0070514e-19)
(0.78338278 -0.13425543 5.145228e-19)
(0.80506465 -0.12097003 6.6126353e-19)
(0.82431823 -0.10917478 6.6607899e-19)
(0.8414555 -0.098679026 3.2828638e-19)
(0.85674279 -0.089320091 -8.8952726e-19)
(0.87040838 -0.080958521 -1.7699809e-18)
(0.88264869 -0.073474268 -5.9363325e-19)
(0.89363325 -0.066763509 -2.7155396e-19)
(0.90350851 -0.060734711 0)
(0.29019218 -0.60813603 2.6860948e-21)
(0.37854433 -0.532662 -1.1499945e-19)
(0.45392344 -0.46834967 0)
(0.51852563 -0.41321757 1.0576483e-20)
(0.57416736 -0.36572145 -7.7285249e-19)
(0.62231007 -0.3246185 3.4979903e-19)
(0.66413894 -0.28890039 4.4166821e-19)
(0.70062218 -0.257743 -2.5123915e-19)
(0.73255626 -0.23046811 -2.5319798e-19)
(0.76060059 -0.20651406 -2.4233437e-19)
(0.78530432 -0.18541297 4.8234927e-19)
(0.80712735 -0.166773 1.6950769e-18)
(0.82645685 -0.15026436 1.1847774e-18)
(0.84362032 -0.13560811 -7.2540548e-19)
(0.85889618 -0.12256734 3.112396e-19)
(0.87252213 -0.1109399 9.1119395e-19)
(0.88470207 -0.10055266 0)
(0.89561165 -0.091256652 7.6249766e-19)
(0.90540276 -0.082923102 2.1161169e-18)
(0.91420717 -0.075439043 1.5988795e-18)
(0.39404297 -0.71192522 -3.8530788e-20)
(0.46954903 -0.62367574 1.8781639e-19)
(0.53392854 -0.54836213 5.3081081e-19)
(0.58910339 -0.48380145 0)
(0.63662507 -0.4281847 -4.3158661e-19)
(0.67774179 -0.38005576 8.2930389e-19)
(0.71346574 -0.33823326 -3.4077894e-19)
(0.74462383 -0.30175166 -1.2375826e-19)
(0.77189629 -0.26981647 -4.6969582e-19)
(0.79584626 -0.24176978 -8.2120761e-19)
(0.81694272 -0.21706361 0)
(0.83557837 -0.19523909 -3.1746344e-19)
(0.85208378 -0.17591005 -5.4892575e-19)
(0.86673858 -0.15874994 -8.8508626e-19)
(0.87978051 -0.14348147 -9.0751871e-19)
(0.89141257 -0.12986825 8.393595e-19)
(0.90180906 -0.117708 8.5553987e-19)
(0.91112046 -0.10682692 -3.7693906e-19)
(0.91947748 -0.097075049 -4.091959e-19)
(0.92699524 -0.088322343 -1.4761447e-18)
(0.51285359 -0.79821986 3.9870131e-20)
(0.57364832 -0.69938152 -9.8276403e-21)
(0.62542656 -0.6149484 4.6522474e-19)
(0.66980418 -0.54256697 1.5913867e-19)
(0.70802853 -0.4802102 7.9308418e-19)
(0.74110281 -0.42624629 2.538844e-20)
(0.76984049 -0.37935128 -8.9476074e-19)
(0.79490614 -0.33844311 -7.0260363e-20)
(0.81684647 -0.30263136 0)
(0.83611412 -0.27117865 -3.5053966e-19)
(0.85308605 -0.24347083 -1.6085029e-18)
(0.86807786 -0.21899357 -1.3393258e-18)
(0.8813552 -0.19731398 1.8384061e-18)
(0.8931427 -0.17806605 8.9483045e-19)
(0.9036312 -0.16093907 1.4035111e-18)
(0.9129836 -0.1456683 3.00712e-19)
(0.92133972 -0.13202754 0)
(0.92882052 -0.11982304 0)
(0.93553203 -0.10888852 9.2389577e-20)
(0.9415722 -0.099083224 1.4867402e-18)
(0.64372126 -0.86491073 8.4348537e-19)
(0.68830778 -0.75792696 -7.5806827e-19)
(0.72620585 -0.66648751 4.383441e-19)
(0.75869096 -0.5880912 -3.4533999e-19)
(0.78667535 -0.52054459 0)
(0.8108921 -0.46208242 3.9500737e-19)
(0.8319356 -0.41127257 4.3867266e-19)
(0.85029155 -0.36694453 4.8431454e-19)
(0.8663596 -0.32813491 0)
(0.8804707 -0.29404581 -8.5491924e-19)
(0.89290048 -0.26401252 -7.544217e-19)
(0.90387969 -0.23747825 8.9523508e-19)
(0.91360247 -0.21397425 8.2067261e-19)
(0.92223282 -0.19310411 -1.2544028e-19)
(0.92990981 -0.17453124 -1.1602343e-18)
(0.93675161 -0.15796883 -6.4757398e-19)
(0.9428589 -0.14317205 2.4679341e-18)
(0.94831776 -0.12993198 -1.053197e-18)
(0.95320301 -0.11807126 -2.4469034e-18)
(0.95759144 -0.10744802 0)
(0.78345792 -0.91036637 1.9468222e-18)
(0.81073708 -0.79786649 9.2553118e-20)
(0.83382995 -0.70171302 -1.3886214e-20)
(0.85363031 -0.61926066 0)
(0.87069134 -0.54820463 0)
(0.88545768 -0.48669275 0)
(0.89829032 -0.43322253 0)
(0.90948463 -0.38656552 1.3170079e-18)
(0.9192838 -0.34571038 8.5829901e-19)
(0.92788929 -0.30981917 -9.0150662e-19)
(0.93546893 -0.27819356 -8.9657192e-19)
(0.94216322 -0.25024839 7.973972e-19)
(0.94809029 -0.22549078 -7.525806e-19)
(0.95334981 -0.20350368 1.4765101e-18)
(0.958026 -0.18393257 -3.2633987e-20)
(0.96218979 -0.16647483 -8.3726223e-19)
(0.96589993 -0.15087138 7.9981553e-19)
(0.96920244 -0.13690015 1.6021414e-19)
(0.97212638 -0.12437224 -2.5782725e-18)
(0.97468438 -0.11314454 1.1402144e-18)
(0.92869358 -0.93347872 9.9809839e-19)
(0.93794475 -0.81817214 7.3605708e-20)
(0.94568858 -0.71974399 -5.9667214e-19)
(0.95233942 -0.63529961 -2.8515804e-19)
(0.95807212 -0.56250088 -3.4360301e-19)
(0.96303289 -0.49946208 0)
(0.96734225 -0.44465081 0)
(0.97109944 -0.39681289 -7.4871028e-19)
(0.97438629 -0.35491506 -1.5598428e-18)
(0.97727067 -0.31810079 -8.0215713e-19)
(0.97980906 -0.28565586 -9.3446461e-19)
(0.98204877 -0.25698154 -7.4379388e-19)
(0.98402952 -0.23157329 -1.5004646e-18)
(0.98578489 -0.20900385 -7.5259335e-19)
(0.98734348 -0.18890953 0)
(0.98872993 -0.17097898 -6.4858991e-19)
(0.9899663 -0.1549434 -6.6820233e-20)
(0.99107406 -0.14056714 3.8943319e-18)
(0.99207847 -0.12763643 7.5346589e-20)
(0.99302066 -0.11595376 1.1637048e-18)
(0.89781253 -0.0078995154 1.029722e-19)
(0.90979063 -0.0065690219 -1.1650362e-22)
(0.9201559 -0.005490113 1.0827854e-22)
(0.92916627 -0.0046065994 -1.011072e-22)
(0.93702867 -0.0038790985 0)
(0.94391274 -0.0032768499 -1.0891133e-19)
(0.94995857 -0.0027759894 -1.0960741e-19)
(0.95528298 -0.0023579038 -1.1050584e-19)
(0.95998436 -0.0020078652 -1.109684e-19)
(0.96414611 -0.0017139871 1.4208066e-22)
(0.96783919 -0.001466581 0)
(0.97112402 -0.0012576981 1.12722e-19)
(0.97405214 -0.0010807903 -1.2992168e-22)
(0.97666757 -0.00093052331 2.0422981e-23)
(0.97900798 -0.00080251316 -1.4110496e-22)
(0.98110578 -0.00069317419 -1.1428149e-19)
(0.98298896 -0.00059955635 0)
(0.98468174 -0.00051922261 -1.1506135e-19)
(0.98620526 -0.00045015186 -1.1533057e-19)
(0.98757794 -0.00039065408 1.158284e-19)
(0.98881593 -0.0003393135 1.1597139e-19)
(0.9899334 -0.00029494232 1.1661804e-19)
(0.99094284 -0.00025653731 1.1644334e-19)
(0.99185529 -0.00022324854 0)
(0.9926805 -0.00019435582 0)
(0.99342708 -0.00016924696 0)
(0.99410272 -0.00014739971 0)
(0.99471422 -0.00012836851 5.9160021e-20)
(0.99526767 -0.00011177322 5.8995724e-20)
(0.99576846 -9.7288593e-05 0)
(0.99622143 -8.4634313e-05 1.7088698e-22)
(0.99663092 -7.3568494e-05 0)
(0.9970008 -6.3883902e-05 -6.0116285e-20)
(0.99733457 -5.5404195e-05 -6.0123917e-20)
(0.99763534 -4.7974932e-05 6.0317611e-20)
(0.99790592 -4.1459532e-05 6.0448036e-20)
(0.99814882 -3.5741917e-05 -6.0686725e-20)
(0.99836635 -3.0724649e-05 -6.0507048e-20)
(0.99856054 -2.6317845e-05 3.071276e-20)
(0.99873322 -2.2441813e-05 -2.5348708e-22)
(0.99888602 -1.9031478e-05 -6.1397863e-20)
(0.99902041 -1.6020856e-05 -3.087418e-20)
(0.99913767 -1.336974e-05 0)
(0.99923888 -1.0994924e-05 0)
(0.99932493 -8.9197861e-06 0)
(0.99939652 -6.9857321e-06 -1.5618592e-20)
(0.9994541 -5.3053192e-06 -3.1420119e-20)
(0.99949787 -3.7012607e-06 -1.5687e-20)
(0.99952771 -2.1624375e-06 4.001474e-21)
(0.99954303 -7.3532227e-07 3.9719714e-21)
(0.90040152 -0.02349318 4.156644e-19)
(0.91177154 -0.019563077 4.2085097e-19)
(0.92167701 -0.016373762 4.2618528e-19)
(0.93034016 -0.013755088 8.6022305e-19)
(0.9379384 -0.011593968 -4.5752949e-22)
(0.94461983 -0.0098014491 -4.3705688e-19)
(0.95050895 -0.0083084232 0)
(0.95571157 -0.0070607457 -3.5168819e-22)
(0.96031819 -0.006015255 0)
(0.96440632 -0.0051369048 1.895783e-21)
(0.96804233 -0.0043969501 -4.512706e-19)
(0.97128298 -0.0037717947 -4.5150449e-19)
(0.97417688 -0.0032420259 0)
(0.97676572 -0.0027917783 5.1077418e-22)
(0.97908541 -0.0024080481 9.8098066e-22)
(0.981167 -0.0020801702 0)
(0.98303743 -0.0017993598 4.623083e-19)
(0.98472018 -0.0015583439 -3.4087558e-22)
(0.98623577 -0.0013510792 -4.6336136e-19)
(0.98760218 -0.0011725205 0)
(0.9888352 -0.0010184353 0)
(0.98994874 -0.00088526047 6.8663787e-22)
(0.99095507 -0.00076998597 -4.6853307e-19)
(0.99186506 -0.00067006439 -9.3977953e-19)
(0.99268832 -0.00058333762 -4.7056686e-19)
(0.99343337 -0.0005079687 0)
(0.9941078 -0.00044239099 2.369705e-19)
(0.99471835 -0.00038526782 2.3606072e-19)
(0.99527104 -0.00033545697 -9.053527e-22)
(0.99577124 -0.00029198256 -1.6729326e-21)
(0.99622375 -0.00025400366 2.3536578e-21)
(0.99663287 -0.00022079319 1.4548952e-21)
(0.99700248 -0.00019172881 -2.4001567e-19)
(0.99733602 -0.00016627658 -2.400365e-19)
(0.99763661 -0.0001439757 0)
(0.99790705 -0.0001244264 2.4219173e-19)
(0.99814985 -0.0001072758 4.8706342e-19)
(0.99836728 -9.2217966e-05 2.442734e-19)
(0.9985614 -7.8990589e-05 2.4114949e-21)
(0.99873402 -6.7362288e-05 -2.1651959e-21)
(0.99888678 -5.7128712e-05 0)
(0.99902112 -4.8101069e-05 -1.2426199e-19)
(0.99913834 -4.0120579e-05 -1.2365539e-19)
(0.99923952 -3.3030026e-05 -1.2458017e-19)
(0.99932555 -2.6730668e-05 -1.2386185e-19)
(0.9993971 -2.1037807e-05 2.8814779e-22)
(0.99945466 -1.5889222e-05 -4.2142857e-22)
(0.99949843 -1.1104207e-05 9.0232575e-22)
(0.99952824 -6.5676259e-06 1.6082716e-20)
(0.99954356 -2.1827909e-06 1.58916e-20)
(0.90523671 -0.038524862 0)
(0.91546414 -0.032165747 -8.575699e-19)
(0.92450805 -0.026997694 -8.6863485e-19)
(0.93251932 -0.022731692 -8.7778665e-19)
(0.93962065 -0.019195223 -8.8066096e-19)
(0.94592021 -0.016250911 1.3858083e-21)
(0.95151411 -0.013791545 0)
(0.95648809 -0.011732072 -8.9739904e-19)
(0.9609179 -0.01000354 -9.0325404e-19)
(0.96486975 -0.0085492913 1.3149282e-23)
(0.96840092 -0.0073225129 0)
(0.97156097 -0.0062846911 1.2169633e-23)
(0.97439281 -0.0054041965 9.1889263e-19)
(0.97693373 -0.0046550861 9.2415665e-19)
(0.9792163 -0.0040161203 9.3254117e-19)
(0.98126904 -0.0034698018 -5.3158409e-21)
(0.98311699 -0.0030016724 3.6458416e-21)
(0.9847822 -0.0025997393 9.3655791e-19)
(0.98628408 -0.0022540043 0)
(0.98763978 -0.0019560992 -2.7059245e-21)
(0.98886444 -0.0016989944 2.5638538e-21)
(0.98997147 -0.0014767641 -2.4269887e-21)
(0.99097274 -0.0012843973 2.3106984e-21)
(0.99187879 -0.0011176522 0)
(0.99269901 -0.00097292917 -4.7607804e-19)
(0.99344172 -0.0008471628 -4.7580586e-19)
(0.99411436 -0.00073774132 0)
(0.99472354 -0.00064243432 -5.1203286e-21)
(0.9952752 -0.00055933531 3.1923971e-21)
(0.99577462 -0.00048681405 -2.3117235e-23)
(0.99622655 -0.00042346358 2.810743e-21)
(0.99663524 -0.00036807151 -4.8125788e-19)
(0.99700453 -0.00031960052 -9.6597095e-19)
(0.99733784 -0.00027715657 -4.8225366e-19)
(0.99763826 -0.00023997183 -4.120654e-21)
(0.99790858 -0.00020738068 -1.9108988e-21)
(0.99815129 -0.00017879054 -4.9167922e-19)
(0.99836866 -0.00015368853 -4.862312e-19)
(0.99856273 -0.00013164036 5.7291362e-21)
(0.99873531 -0.00011226121 -2.5861923e-21)
(0.99888803 -9.5206308e-05 2.2743536e-21)
(0.99902235 -8.0163173e-05 -2.0006689e-21)
(0.99913954 -6.685558e-05 2.4576543e-19)
(0.99924069 -5.5053471e-05 4.9901606e-19)
(0.99932669 -4.4534637e-05 2.5105076e-19)
(0.99939823 -3.5085659e-05 0)
(0.99945576 -2.6471905e-05 7.3522873e-22)
(0.99949951 -1.8506965e-05 -6.2281221e-20)
(0.99952931 -1.0973337e-05 -6.3350154e-20)
(0.99954461 -3.6318021e-06 -1.9005536e-22)
(0.91221397 -0.052700701 2.6610778e-21)
(0.92080585 -0.04417647 -2.4989208e-21)
(0.92861716 -0.03723212 -2.3657444e-21)
(0.93568801 -0.031452988 -2.235564e-21)
(0.94206672 -0.026629534 0)
(0.94780764 -0.022592102 -3.9964406e-21)
(0.95296907 -0.019206297 0)
(0.9576091 -0.016362589 3.6221916e-21)
(0.96178196 -0.013969894 -9.2262308e-19)
(0.96553656 -0.011952215 -8.9524815e-22)
(0.96891634 -0.010246453 9.2520683e-19)
(0.97195998 -0.0088005267 -8.8708412e-21)
(0.97470206 -0.0075716576 -2.8223589e-21)
(0.97717354 -0.0065246736 5.3436523e-21)
(0.97940225 -0.0056306083 9.4891669e-19)
(0.98141313 -0.0048654956 1.8902083e-18)
(0.98322852 -0.0042094652 9.4617602e-19)
(0.98486839 -0.0036459485 -9.4725228e-19)
(0.98635057 -0.0031610598 -9.5080564e-19)
(0.98769096 -0.0027431534 -3.9392778e-21)
(0.98890375 -0.0023824344 3.7318241e-21)
(0.9900016 -0.0020706236 -3.5319782e-21)
(0.99099579 -0.0018007101 6.6441685e-21)
(0.99189642 -0.0015667539 -9.707946e-19)
(0.99271249 -0.001363708 -9.6271293e-19)
(0.99345206 -0.0011872742 9.683928e-19)
(0.99412232 -0.0010337886 9.6634293e-19)
(0.99472973 -0.00090012102 -9.8712535e-21)
(0.99528007 -0.00078359272 -9.6942972e-19)
(0.99577853 -0.00068190866 4.2557513e-21)
(0.99622977 -0.00059309603 9.7353e-19)
(0.99663797 -0.00051545711 -9.797572e-19)
(0.99700692 -0.00044753207 -9.7720284e-19)
(0.99734 -0.00038806426 0)
(0.99764027 -0.0003359722 4.8683104e-19)
(0.99791048 -0.00029031669 4.9147855e-19)
(0.99815313 -0.00025027239 -3.3542834e-23)
(0.99837047 -0.00021512325 4.5699414e-21)
(0.99856451 -0.00018425383 4.1314006e-21)
(0.99873707 -0.00015712256 0)
(0.99888978 -0.00013324648 5.0249996e-19)
(0.99902409 -0.00011219202 4.9507561e-19)
(0.99914126 -9.3575796e-05 -5.03531e-21)
(0.99924239 -7.7064589e-05 0)
(0.99932837 -6.2343371e-05 2.5202046e-19)
(0.99939988 -4.9113576e-05 2.5156753e-19)
(0.9994574 -3.7061692e-05 -1.2446327e-19)
(0.99950112 -2.5914163e-05 -1.2651144e-19)
(0.9995309 -1.536845e-05 0)
(0.99954619 -5.0910357e-06 -3.091954e-22)
(0.92119062 -0.065740139 1.8112952e-18)
(0.92771272 -0.055403056 1.8124017e-18)
(0.93396142 -0.04694847 6.2291222e-21)
(0.93982277 -0.039833078 0)
(0.94526124 -0.033840489 0)
(0.9502713 -0.028790459 -5.3063544e-21)
(0.95486744 -0.024534153 0)
(0.95907262 -0.020944608 1.8916174e-18)
(0.96291189 -0.017913185 1.8884472e-18)
(0.96641036 -0.015348082 0)
(0.96959294 -0.013172757 -4.1166156e-21)
(0.9724842 -0.01132383 1.9167277e-18)
(0.97510817 -0.0097489441 1.9152145e-18)
(0.97748792 -0.0084047737 1.4140499e-20)
(0.9796453 -0.0072553289 9.6696039e-19)
(0.9816007 -0.0062706467 2.1929159e-21)
(0.98337295 -0.0054256993 -9.6742485e-19)
(0.98497932 -0.0046994815 0)
(0.98643553 -0.0040743438 -9.7598604e-19)
(0.98775583 -0.0035354328 -9.6288947e-19)
(0.98895311 -0.0030701958 0)
(0.99003904 -0.0026680036 -9.8152903e-19)
(0.99102411 -0.0023198547 -9.605994e-19)
(0.99191779 -0.0020181064 -1.6551529e-20)
(0.9927286 -0.0017562516 0)
(0.99346421 -0.001528748 0)
(0.99413153 -0.0013308702 9.8249268e-19)
(0.99473677 -0.001158577 9.7867248e-19)
(0.99528553 -0.0010084066 0)
(0.99578287 -0.0008773934 -5.6892919e-21)
(0.99623332 -0.00076299074 0)
(0.99664099 -0.00066300642 0)
(0.99700958 -0.00057555341 9.977213e-19)
(0.99734243 -0.00049900802 1.001384e-18)
(0.99764257 -0.00043197079 0)
(0.99791272 -0.00037322615 9.9463466e-19)
(0.99815535 -0.00032171209 1.0035162e-18)
(0.99837268 -0.00027650695 5.9285028e-21)
(0.99856672 -0.00023681357 -5.0293506e-19)
(0.9987393 -0.00020193169 -5.0062697e-19)
(0.99889202 -0.00017123894 0)
(0.99902633 -0.00014417971 0)
(0.9991435 -0.0001202618 0)
(0.99924461 -9.9049585e-05 5.1200433e-19)
(0.99933057 -8.0134397e-05 5.0931606e-19)
(0.99940207 -6.3131902e-05 -3.6934343e-21)
(0.99945956 -4.7648085e-05 -2.5717085e-19)
(0.99950326 -3.3322786e-05 -1.2644414e-19)
(0.99953302 -1.9767377e-05 1.271688e-19)
(0.99954828 -6.5531849e-06 0)
(0.931988 -0.077378045 -3.7801818e-18)
(0.93608057 -0.065662591 7.8524763e-21)
(0.94048313 -0.05601651 1.9112187e-18)
(0.94488731 -0.047781168 -1.9131704e-18)
(0.94918046 -0.040769223 -1.9208881e-18)
(0.953299 -0.034812494 0)
(0.95720744 -0.029759341 1.9462439e-18)
(0.96088393 -0.025472999 1.9505281e-18)
(0.96431608 -0.021833851 -1.9555133e-18)
(0.96749982 -0.018739945 -1.9579045e-18)
(0.97043813 -0.016105585 0)
(0.9731393 -0.013859085 9.8186255e-21)
(0.97561517 -0.011940489 0)
(0.97787955 -0.010299561 1.9991669e-18)
(0.97994711 -0.0088941154 -1.1647818e-20)
(0.98183268 -0.0076886792 -1.9870422e-18)
(0.98355074 -0.0066533474 0)
(0.98511512 -0.0057628922 -7.1890697e-21)
(0.98653887 -0.0049960281 0)
(0.98783417 -0.0043347397 2.5879245e-20)
(0.98901225 -0.0037637458 0)
(0.99008349 -0.0032700916 0)
(0.99105738 -0.0028427822 -2.0204636e-18)
(0.9919426 -0.0024724567 -1.0071357e-18)
(0.99274706 -0.0021511373 -7.43105e-21)
(0.99347793 -0.0018720266 -1.0057822e-18)
(0.99414176 -0.0016293198 -8.6144484e-21)
(0.99474447 -0.001418047 1.0070267e-18)
(0.99529142 -0.0012339524 1.0079185e-18)
(0.99578749 -0.00107339 -1.0165712e-18)
(0.99623707 -0.00093322749 -2.0263848e-18)
(0.99664418 -0.00081076763 -1.0097082e-18)
(0.99701242 -0.00070368935 -1.0184563e-18)
(0.99734508 -0.00060999598 -1.000286e-18)
(0.99764513 -0.00052796429 0)
(0.99791525 -0.00045609779 1.0111004e-18)
(0.99815789 -0.00039309369 2.0407829e-18)
(0.99837526 -0.00033782178 1.0275095e-18)
(0.99856935 -0.00028930127 0)
(0.99874196 -0.00024667096 1.183603e-20)
(0.99889472 -0.00020916759 5.1086528e-19)
(0.99902905 -0.00017611224 5.075038e-19)
(0.99914623 -0.00014690235 0)
(0.99924734 -0.00012099979 6.8186823e-21)
(0.99933329 -9.7901581e-05 5.1686945e-19)
(0.99940477 -7.7136685e-05 7.5987884e-19)
(0.99946224 -5.8229351e-05 2.5112293e-19)
(0.99950591 -4.0732716e-05 0)
(0.99953565 -2.4170802e-05 0)
(0.99955089 -8.0189306e-06 9.2479843e-22)
(0.94439179 -0.087365202 -2.0035172e-18)
(0.94578404 -0.074779769 -1.9948646e-18)
(0.94810433 -0.064300985 0)
(0.95083322 -0.05520327 1.8065351e-20)
(0.95380314 -0.047359392 8.53198e-21)
(0.956892 -0.040629163 0)
(0.96000307 -0.034868895 0)
(0.96306055 -0.029943215 -7.2815264e-21)
(0.96601004 -0.025731658 1.3858881e-20)
(0.96881636 -0.022129854 2.0509436e-18)
(0.97145937 -0.019048281 2.0289869e-18)
(0.97392972 -0.016410337 0)
(0.97622542 -0.014150618 0)
(0.97834944 -0.012213346 -1.0726379e-20)
(0.98030788 -0.010551022 1.0188295e-20)
(0.9821088 -0.0091232338 0)
(0.98376133 -0.0078956072 2.0782282e-18)
(0.98527511 -0.0068389439 2.0543888e-18)
(0.98665989 -0.0059284382 -2.0910959e-18)
(0.98792527 -0.0051429886 -2.0506062e-18)
(0.98908048 -0.0044646469 0)
(0.9901343 -0.0038781494 -2.087638e-18)
(0.99109502 -0.0033704921 -2.0954662e-18)
(0.99197033 -0.0029305832 -2.1020138e-18)
(0.9927674 -0.0025489646 -4.1483596e-18)
(0.99349283 -0.0022175634 -2.0809317e-18)
(0.99415268 -0.0019294715 2.090901e-18)
(0.99475254 -0.0016787718 2.0599288e-18)
(0.99529749 -0.0014603997 0)
(0.99579219 -0.0012700132 0)
(0.99624088 -0.0011038785 0)
(0.99664743 -0.00095878119 -1.462381e-20)
(0.99701535 -0.00083195774 0)
(0.99734786 -0.00072103019 -1.0437377e-18)
(0.99764786 -0.00062394383 2.2335511e-20)
(0.99791802 -0.00053891562 1.0423199e-18)
(0.99816072 -0.00046439734 2.9977427e-23)
(0.99837818 -0.00039904649 8.7493155e-21)
(0.99857235 -0.00034169573 1.0320351e-18)
(0.99874504 -0.00029132035 1.0434238e-18)
(0.99889786 -0.00024701432 0)
(0.99903224 -0.00020797394 -1.09323e-20)
(0.99914945 -0.00017348466 -9.4528211e-21)
(0.99925057 -0.00014290521 0)
(0.99933651 -0.0001156376 0)
(0.99940797 -9.1123056e-05 0)
(0.99946542 -6.8802932e-05 2.5713551e-19)
(0.99950907 -4.8143161e-05 5.1548445e-19)
(0.99953878 -2.8578972e-05 2.5582971e-19)
(0.99955401 -9.4886453e-06 1.0785985e-21)
(0.95814474 -0.095466985 2.1407054e-18)
(0.95667127 -0.082585427 2.1206268e-18)
(0.95673289 -0.071667491 2.1349913e-18)
(0.95762739 -0.06201328 2.1354947e-18)
(0.95914194 -0.053561852 1.0220292e-20)
(0.96108363 -0.046212341 0)
(0.963288 -0.039845939 9.1486499e-21)
(0.96562743 -0.034345424 -2.6996938e-23)
(0.96800908 -0.029602038 -2.1514261e-18)
(0.97036797 -0.025517277 -2.1356767e-18)
(0.97265993 -0.022003092 -2.1659607e-18)
(0.97485593 -0.018981504 -4.3097514e-18)
(0.97693796 -0.016384039 -2.1433095e-18)
(0.97889597 -0.014151004 -1.2779679e-20)
(0.98072575 -0.012230701 1.2130704e-20)
(0.98242715 -0.010578541 2.1591937e-18)
(0.9840029 -0.0091561921 -1.2538612e-20)
(0.9854576 -0.0079307905 -4.3220564e-18)
(0.98679705 -0.0068741914 -2.1589089e-18)
(0.98802776 -0.0059623243 -2.1832234e-18)
(0.9891566 -0.0051746318 -2.1483182e-18)
(0.99019045 -0.0044935493 0)
(0.99113614 -0.0039040559 2.1573935e-18)
(0.99200024 -0.0033933156 -5.6478279e-20)
(0.99278901 -0.0029503662 -2.1294317e-18)